/*--------------------------------*- C++ -*----------------------------------*\
  =========                 |
  \\      /  F ield         | OpenFOAM: The Open Source CFD Toolbox
   \\    /   O peration     | Website:  https://openfoam.org
    \\  /    A nd           | Version:  6
     \\/     M anipulation  |
\*---------------------------------------------------------------------------*/
FoamFile
{
    version     2.0;
    format      ascii;
    class       volScalarField;
    location    "2300";
    object      nut;
}
// * * * * * * * * * * * * * * * * * * * * * * * * * * * * * * * * * * * * * //

dimensions      [0 2 -1 0 0 0 0];

internalField   nonuniform List<scalar> 
459
(
0.00113801
0.0012465
0.00127074
0.00133354
0.00139239
0.00144821
0.00150389
0.00155487
0.00158897
0.00160036
0.00158405
0.00153702
0.00145837
0.00135278
0.00123362
0.000510798
0.000616138
0.000692577
0.000690308
0.000666494
0.000634832
0.000594674
0.000554894
0.000518893
0.00048702
0.000458869
0.000433919
0.000411759
0.000391921
0.000373698
0.000356212
0.000338274
0.000327742
0.000301001
0.00154887
0.00388463
0.00376
0.00439095
0.00501251
0.00562413
0.00614146
0.00654758
0.00690461
0.00718416
0.00735011
0.00736515
0.0071722
0.00662402
0.0051225
0.00126745
0.000732983
0.000542892
0.00113738
0.00158506
0.00191279
0.00208855
0.0020799
0.00165667
0.00142425
0.00125925
0.00113317
0.0010332
0.000951915
0.000882282
0.000817318
0.000754059
0.000697537
0.000646835
0.000772371
0.000401575
0.00188778
0.00530932
0.00469608
0.00588123
0.00648347
0.00693177
0.00727812
0.00757014
0.00787735
0.00818572
0.00845533
0.00864008
0.00868649
0.00850413
0.00783668
0.00593423
0.00129749
0.00105047
0.00153193
0.00198014
0.00239066
0.00267169
0.00259861
0.000847018
0.000746255
0.00066536
0.000600197
0.000547217
0.000503681
0.000467619
0.000437779
0.000413638
0.000446248
0.000515396
0.000876813
0.000470572
0.00221046
0.00674894
0.00474712
0.00623267
0.00675588
0.00695175
0.00709404
0.00727205
0.00753666
0.00787041
0.00822017
0.00852926
0.00873579
0.00876397
0.00855664
0.007814
0.0053356
0.00152991
0.00189982
0.00246192
0.00301825
0.00346338
0.00373076
0.00348414
0.000953322
0.000865432
0.000802178
0.000753513
0.000711843
0.000674229
0.000638076
0.000600352
0.000557009
0.000523429
0.000541344
0.00103588
0.000521153
0.00253777
0.0085763
0.00525068
0.0060543
0.00671153
0.00678093
0.00675769
0.00688813
0.00712997
0.00748516
0.00788338
0.00824859
0.0084905
0.00855499
0.00843587
0.00809961
0.00735197
0.00609857
0.0056617
0.00552267
0.00547664
0.00543873
0.00535953
0.00511904
0.00427657
0.00386705
0.00362412
0.00343485
0.00323899
0.00296105
0.00260315
0.00218223
0.00172557
0.00127702
0.000946341
0.00100283
0.000684074
0.000640459
0.000764304
0.000855701
0.00288336
0.0105587
0.00718084
0.00616972
0.00664885
0.00676557
0.00671385
0.00679662
0.0069864
0.00731439
0.0077396
0.00814823
0.00841198
0.00845192
0.00827797
0.00797622
0.00764242
0.0073296
0.00715354
0.00700419
0.00681781
0.00659685
0.00634658
0.00604345
0.00562601
0.00526134
0.00494576
0.00465142
0.00435978
0.00404612
0.00366212
0.00319447
0.00264694
0.0020554
0.00154511
0.00114519
0.000915012
0.00081216
0.00117308
0.000897213
0.00319019
0.0119051
0.00988057
0.0079288
0.00759874
0.00732303
0.00703205
0.00691493
0.0070366
0.00738752
0.00787227
0.0083289
0.00859433
0.00857828
0.00831224
0.00795623
0.00772006
0.00767936
0.00768602
0.0075669
0.00730054
0.00694055
0.00652676
0.00608037
0.0056251
0.00521768
0.004858
0.00453341
0.00424111
0.00398573
0.00376625
0.00345332
0.00302479
0.00251201
0.00204108
0.00160937
0.00133636
0.0012671
0.00129124
0.0010216
0.00324304
0.010386
0.00938371
0.00867494
0.00799449
0.00731699
0.00690106
0.00685285
0.00715795
0.00771267
0.00834012
0.00882991
0.00901691
0.00884919
0.00842353
0.00799265
0.00781266
0.0078507
0.00776826
0.00744758
0.0069602
0.00638599
0.00579146
0.00523676
0.00476414
0.00438149
0.00406963
0.00381579
0.00361913
0.00348424
0.00341451
0.00337637
0.00316772
0.00284107
0.00257411
0.00246865
0.00261329
0.00305499
0.00392762
0.00154777
0.00315134
0.00371524
0.00409129
0.00418388
0.00439992
0.00487917
0.0056361
0.00661645
0.00768999
0.00867786
0.00939097
0.0096731
0.00948591
0.00894338
0.00831169
0.00792495
0.0076957
0.00745236
0.00703983
0.006445
0.00575352
0.00506429
0.00445837
0.00397502
0.00360774
0.00332647
0.00310302
0.00292049
0.00276856
0.00263902
0.00252498
0.00242609
0.00235269
0.00230754
0.00230648
0.00233841
0.00233948
0.00225286
0.00209494
0.00143722
0.00144122
0.00367307
0.00667906
0.00865121
0.00996146
0.0107698
0.0111142
0.0110608
0.0106851
0.0100681
0.00919807
0.00830688
0.00762123
0.00715314
0.00669925
0.00614042
0.00548603
0.00480872
0.00417817
0.00364609
0.00324081
0.00294756
0.00273493
0.00257662
0.0024565
0.00236627
0.00230229
0.00226416
0.0022544
0.00227151
0.00230605
0.00235654
0.00241793
0.00247169
0.00249346
0.00248451
0.00220329
0.00118778
0.00218646
0.00678648
0.00937379
0.0100642
0.0102827
0.0101428
0.0096727
0.00899071
0.00821187
0.00744374
0.00671977
0.00611182
0.005614
0.00512717
0.00460283
0.00407628
0.00359291
0.0031825
0.002854
0.00260084
0.00240796
0.00226869
0.00217183
0.00211003
0.00207898
0.00207489
0.00209261
0.00212861
0.00218863
0.00226835
0.00236448
0.00247123
0.0025761
0.00266502
0.00273794
0.00275134
0.0019016
0.00122625
0.00195932
0.00207844
0.00216424
0.00233508
0.00224448
0.0021596
0.00208947
0.00198728
0.00184901
0.0016829
0.0014978
0.00130973
0.00114126
0.00100611
0.000904669
0.00083019
0.000775323
0.00073484
0.000705772
0.000686516
0.000675909
0.000672997
0.000676573
0.000685136
0.000698291
0.000715891
0.000738005
0.000764943
0.000797395
0.000836136
0.000880756
0.000931734
0.000989421
0.0010542
0.0011258
0.00120809
0.00123067
0.00112115
0.00104511
0.0011858
)
;

boundaryField
{
    floor
    {
        type            nutkWallFunction;
        Cmu             0.09;
        kappa           0.41;
        E               9.8;
        value           nonuniform List<scalar> 
29
(
0.000147862
6.10958e-05
7.43636e-05
8.38166e-05
8.35378e-05
8.06058e-05
7.66879e-05
7.16843e-05
6.66871e-05
6.21267e-05
5.80564e-05
5.44337e-05
5.11997e-05
4.83076e-05
4.57016e-05
4.32931e-05
4.09676e-05
3.85667e-05
3.71491e-05
3.35228e-05
3.35228e-05
4.69712e-05
5.59423e-05
6.24132e-05
0.000147862
6.10958e-05
6.51706e-05
0.000126638
0.000181476
)
;
    }
    ceiling
    {
        type            nutkWallFunction;
        Cmu             0.09;
        kappa           0.41;
        E               9.8;
        value           nonuniform List<scalar> 
43
(
0.000228773
0.000241716
0.000250991
0.000269489
0.000259818
0.000250689
0.000243111
0.000232011
0.000216886
0.000198548
0.000177875
0.00015658
0.00013721
0.000121438
0.00010944
0.000100532
9.39097e-05
8.89884e-05
8.54348e-05
8.30712e-05
8.17659e-05
8.14071e-05
8.18476e-05
8.29015e-05
8.45174e-05
8.66738e-05
8.93742e-05
9.26508e-05
9.65801e-05
0.000101246
0.00010659
0.000112656
0.000119474
0.000127077
0.000135418
0.000144932
0.00014753
0.000134879
0.000126015
0.000142366
0.000355839
0.000413933
0.00025318
)
;
    }
    sWall
    {
        type            nutkWallFunction;
        Cmu             0.09;
        kappa           0.41;
        E               9.8;
        value           uniform 0.000228838;
    }
    nWall
    {
        type            nutkWallFunction;
        Cmu             0.09;
        kappa           0.41;
        E               9.8;
        value           nonuniform List<scalar> 6(0.000103595 0.000108555 0.000123262 0.000142603 0.000147034 0.000142376);
    }
    sideWalls
    {
        type            empty;
    }
    glass1
    {
        type            nutkWallFunction;
        Cmu             0.09;
        kappa           0.41;
        E               9.8;
        value           nonuniform List<scalar> 9(0.000136962 0.000183857 0.000221484 0.000256627 0.000291718 0.000328254 0.000360314 0.000365813 0.000356303);
    }
    glass2
    {
        type            nutkWallFunction;
        Cmu             0.09;
        kappa           0.41;
        E               9.8;
        value           nonuniform List<scalar> 2(0.000183575 0.000171133);
    }
    sun
    {
        type            nutkWallFunction;
        Cmu             0.09;
        kappa           0.41;
        E               9.8;
        value           nonuniform List<scalar> 
14
(
0.000136835
0.000149341
0.000152119
0.000159289
0.000165975
0.000172286
0.000178555
0.000184273
0.000188085
0.000189356
0.000187535
0.000182271
0.00017343
0.000161477
)
;
    }
    heatsource1
    {
        type            nutkWallFunction;
        Cmu             0.09;
        kappa           0.41;
        E               9.8;
        value           nonuniform List<scalar> 3(7.73873e-05 9.25735e-05 0.000103592);
    }
    heatsource2
    {
        type            nutkWallFunction;
        Cmu             0.09;
        kappa           0.41;
        E               9.8;
        value           nonuniform List<scalar> 4(0.000151735 8.87632e-05 8.87632e-05 0.000155171);
    }
    Table_master
    {
        type            nutkWallFunction;
        Cmu             0.09;
        kappa           0.41;
        E               9.8;
        value           nonuniform List<scalar> 9(0.000102551 9.03799e-05 8.0468e-05 7.23786e-05 6.5723e-05 6.01948e-05 5.55708e-05 5.1711e-05 4.85642e-05);
    }
    Table_slave
    {
        type            nutkWallFunction;
        Cmu             0.09;
        kappa           0.41;
        E               9.8;
        value           nonuniform List<scalar> 9(0.000115209 0.000104756 9.71571e-05 9.12628e-05 8.61797e-05 8.1561e-05 7.70925e-05 7.2397e-05 6.69577e-05);
    }
    inlet
    {
        type            calculated;
        value           uniform 0.000100623;
    }
    outlet
    {
        type            calculated;
        value           nonuniform List<scalar> 2(0.00195932 0.00207844);
    }
}


// ************************************************************************* //
