/*--------------------------------*- C++ -*----------------------------------*\
  =========                 |
  \\      /  F ield         | OpenFOAM: The Open Source CFD Toolbox
   \\    /   O peration     | Website:  https://openfoam.org
    \\  /    A nd           | Version:  6
     \\/     M anipulation  |
\*---------------------------------------------------------------------------*/
FoamFile
{
    version     2.0;
    format      ascii;
    class       surfaceScalarField;
    location    "2300";
    object      phi;
}
// * * * * * * * * * * * * * * * * * * * * * * * * * * * * * * * * * * * * * //

dimensions      [1 0 -1 0 0 0 0];

internalField   nonuniform List<scalar> 
852
(
-0.0030403
0.00310008
-0.00412167
0.00108137
-0.00492498
0.000803307
-0.00553825
0.000613277
-0.00592988
0.000391628
-0.00607626
0.000146378
-0.00595654
-0.000119722
-0.00556026
-0.000396276
-0.00491329
-0.00064697
-0.00408042
-0.000832872
-0.00315184
-0.000928581
-0.00222316
-0.000928679
-0.00137861
-0.000844554
-0.000655928
-0.000722681
-0.000653871
-0.0008072
0.000810902
-0.000473783
-0.000333417
0.000192818
-0.000666601
0.000721405
-0.000528586
0.00107467
-0.000353262
0.00129563
-0.000220967
0.0014161
-0.000120468
0.0014755
-5.93955e-05
0.00150884
-3.33401e-05
0.00152925
-2.0412e-05
0.00154076
-1.15106e-05
0.00154482
-4.06223e-06
0.00153974
5.08383e-06
0.00151726
2.24844e-05
0.00145487
6.23841e-05
0.00131484
0.000140035
0.00108507
0.000229767
0.000802584
0.000282488
0.000807616
-0.00216387
0.00542455
-0.00320896
0.00212646
-0.00403025
0.00162459
-0.00463194
0.00121497
-0.00501605
0.000775744
-0.00516763
0.000297959
-0.00506321
-0.000224149
-0.00469869
-0.000760799
-0.00411207
-0.00123358
-0.00337464
-0.0015703
-0.00257268
-0.00173055
-0.00178616
-0.0017152
-0.0010864
-0.00154431
-0.000550532
-0.00125855
-0.000324114
-0.000880289
4.45943e-05
-0.00036876
4.45426e-05
0.000374229
0.000447321
0.00080362
-0.000762807
0.00106652
-0.0009295
0.00129319
-0.000755262
0.00146637
-0.000526434
0.00157008
-0.000324679
0.00158679
-0.000137177
0.00159095
-6.35621e-05
0.00159603
-3.84191e-05
0.00160026
-2.46394e-05
0.00160302
-1.42717e-05
0.00160437
-5.40602e-06
0.00160347
5.9797e-06
0.00159672
2.92329e-05
0.00155469
0.000104418
0.00137479
0.000319931
0.00106609
0.000538475
0.000684486
0.000664089
0.00150484
-0.00150988
0.00717978
-0.00240759
0.00302417
-0.00313072
0.00234772
-0.00364045
0.0017247
-0.00396833
0.00110362
-0.00409362
0.000423247
-0.00397281
-0.000344962
-0.00360492
-0.00112869
-0.00305162
-0.00178689
-0.00239316
-0.00222876
-0.00170924
-0.00241447
-0.00105742
-0.00236701
-0.000484952
-0.00211678
-2.88182e-05
-0.00171469
0.000273274
-0.00118238
0.00043041
-0.000525897
0.000474952
0.00160014
-0.00114148
0.00182775
-0.000990412
0.00177956
-0.000881317
0.0017644
-0.000740098
0.00178281
-0.000544843
0.00180055
-0.000342421
0.00166353
0.00160012
0.00156185
0.00153737
0.00152325
0.001518
0.00152413
0.00155352
0.00165809
0.00135998
0.000618049
0.00100312
0.000895334
0.000572104
0.0010951
0.00209614
-0.00104959
0.00854689
-0.00175739
0.00373198
-0.0022279
0.00281823
-0.00255139
0.00204818
-0.00274884
0.00130107
-0.00277925
0.00045366
-0.00257784
-0.000546372
-0.002175
-0.00153153
-0.00166317
-0.00229871
-0.00111815
-0.00277378
-0.000597844
-0.00293478
-0.000127267
-0.00283759
0.000279691
-0.00252374
0.000621472
-0.00205647
0.000932865
-0.00149377
0.00130226
-0.000895296
0.00215572
-0.000378502
0.00260836
-0.000442422
0.00218224
-0.00071536
0.00203843
-0.000846602
0.00191279
-0.000755681
0.00180316
-0.000630458
0.00174021
-0.000481895
0.00170734
-0.000309549
0.00183443
-0.00012725
0.00191203
-7.77481e-05
0.00197255
-6.06789e-05
0.00201635
-4.39442e-05
0.00202824
-1.20526e-05
0.00198686
4.12318e-05
0.0018678
0.000118908
0.00163895
0.000228693
0.00124529
0.00039351
0.00110192
0.000761425
0.000787096
0.00121015
0.000302902
0.0015793
0.00242413
-0.000731904
0.00965762
-0.00126579
0.00426586
-0.00134863
0.00290107
-0.00138369
0.00208324
-0.00136439
0.00128178
-0.00118296
0.000272226
-0.00081661
-0.000912721
-0.000379981
-0.00196816
3.90574e-05
-0.00271775
0.000395088
-0.00312981
0.000677348
-0.00321704
0.000891227
-0.00305147
0.00105854
-0.00269106
0.00120437
-0.00220229
0.00136148
-0.00165088
0.00157678
-0.0011106
0.0018902
-0.000691921
0.00200742
-0.000559642
0.00190733
-0.000615273
0.00171541
-0.000654678
0.00155172
-0.000591997
0.00141594
-0.000494672
0.00132059
-0.000386547
0.00128045
-0.000269406
0.00132214
-0.000168941
0.00137156
-0.000127168
0.00142543
-0.000114546
0.00147966
-9.81792e-05
0.00152249
-5.48758e-05
0.00153347
3.02447e-05
0.00149232
0.000160063
0.00138739
0.000333625
0.00122033
0.000560565
0.00107177
0.000909985
0.000906536
0.00137539
0.000508327
0.00197751
0.000378686
0.00255377
-0.001119
0.00149748
-0.00157889
0.000459684
-0.00152488
-0.00063507
0.0107233
-0.000993748
0.00462454
-0.000534241
0.00244156
-9.91755e-05
0.00164817
0.000290686
0.000891914
0.000801085
-0.000238173
0.00132681
-0.00143844
0.0017113
-0.00235266
0.00193273
-0.00293918
0.00201172
-0.0032088
0.00198975
-0.00319507
0.00189611
-0.00295784
0.00176809
-0.00256304
0.00164262
-0.00207682
0.00155078
-0.00155904
0.00151417
-0.00107398
0.00152274
-0.00070049
0.0014752
-0.000512101
0.00133052
-0.000470599
0.00113201
-0.000456164
0.000954176
-0.000414163
0.0008157
-0.000356195
0.00072411
-0.000294956
0.000689136
-0.000234431
0.000709979
-0.000189783
0.000760337
-0.000177525
0.000827537
-0.000181745
0.000906195
-0.000176836
0.000990331
-0.000139011
0.00106533
-4.47505e-05
0.00111276
0.00011263
0.00113107
0.000315321
0.00112848
0.000563148
0.00115403
0.000884442
0.00126192
0.0012675
0.00145598
0.00178345
0.00195675
0.002053
0.00223619
0.00121805
0.00185373
0.00084214
0.000393558
-0.000662198
0.0118633
-0.00051468
0.00447702
0.000718247
0.00120863
0.00164273
0.000723686
0.00249965
3.49953e-05
0.00329136
-0.00102988
0.00377713
-0.00192421
0.0039555
-0.00253104
0.00387193
-0.00285561
0.00359032
-0.00292719
0.00318196
-0.00278671
0.00271019
-0.00248607
0.00223244
-0.00208529
0.00179583
-0.00164021
0.0014296
-0.00119281
0.00114696
-0.000791347
0.000939941
-0.00049347
0.000760964
-0.000333124
0.000572567
-0.000282201
0.000385722
-0.000269318
0.00022764
-0.000256081
0.000110618
-0.000239173
3.85175e-05
-0.000222855
1.44713e-05
-0.000210384
3.38076e-05
-0.000209119
8.08725e-05
-0.000224589
0.000145225
-0.000246097
0.000225639
-0.00025725
0.000326767
-0.000240138
0.000454297
-0.00017228
0.000592307
-2.53784e-05
0.000729527
0.000178102
0.00088054
0.000412136
0.00108578
0.000679199
0.00140134
0.000951952
0.00190162
0.00128316
0.002651
0.00130362
0.0032318
0.000637253
0.00330189
0.000772045
0.00376536
0.00276988
0.00962846
0.00355047
0.00369643
0.00417517
0.000583932
0.00518263
-0.000283775
0.00610847
-0.000890847
0.00657057
-0.00149198
0.00659006
-0.00194371
0.00623902
-0.00218
0.00560697
-0.00222357
0.0047936
-0.00211383
0.00389747
-0.00189057
0.00300094
-0.00158954
0.00217038
-0.00125473
0.00145244
-0.000922264
0.000866727
-0.000607101
0.000421529
-0.000346148
0.000109427
-0.000181367
-0.000111269
-0.000112427
-0.000285515
-0.000107954
-0.000430408
-0.000124425
-0.000545658
-0.00014083
-0.000630043
-0.000154787
-0.000684097
-0.000168799
-0.000709109
-0.000185371
-0.000710431
-0.000207795
-0.000698266
-0.000236753
-0.000678588
-0.000265774
-0.000650123
-0.000285714
-0.000603564
-0.000286695
-0.000518843
-0.000257001
-0.000364093
-0.000180127
-0.000157211
-2.87786e-05
8.3696e-05
0.00017123
0.000381906
0.00038099
0.000749938
0.000583921
0.00124602
0.000787082
0.00176654
0.000783104
0.0018585
0.000545289
0.000831541
0.00179901
0.00489269
0.0102212
0.0139137
0.0129791
0.00151851
0.0123579
0.000337419
0.0116039
-0.000136851
0.010563
-0.000451041
0.00925419
-0.000634889
0.00778985
-0.000715662
0.00627135
-0.00070507
0.00478585
-0.000628333
0.00341192
-0.00051664
0.002199
-0.000376611
0.00117996
-0.000235692
0.000362775
-0.000105083
-0.000245247
9.21565e-07
-0.000641166
4.97718e-05
-0.0008736
5.10685e-05
-0.00101858
3.25511e-05
-0.00112949
2.96374e-06
-0.0012251
-2.88184e-05
-0.00130712
-5.88098e-05
-0.00137655
-8.53505e-05
-0.00143509
-0.00011026
-0.00148623
-0.000134227
-0.00153618
-0.000157848
-0.00159345
-0.00017948
-0.00166573
-0.000193492
-0.00176017
-0.00019128
-0.00188505
-0.000161805
-0.00205104
-9.10163e-05
-0.00226552
3.43553e-05
-0.00251568
0.000221383
-0.00283105
0.000486606
-0.00329873
0.000848671
-0.00402006
0.00130525
-0.00505787
0.00182489
-0.0065316
0.00225683
-0.00835754
0.00237123
-0.00804449
0.00148596
-0.00282507
0.00437478
0.00337963
0.00335943
0.00135277
0.0036529
-0.000430319
0.00359235
-0.000390493
0.00313566
-0.000178203
0.00245112
-3.11137e-05
0.00165058
9.54684e-05
0.00082709
0.000195161
5.59409e-05
0.000254511
-0.000592655
0.000271987
-0.00107948
0.000251134
-0.00141031
0.000225748
-0.00160422
0.000194834
-0.00171006
0.00015561
-0.00177567
0.000116682
-0.00182586
8.27479e-05
-0.00187547
5.25735e-05
-0.00193066
2.63683e-05
-0.00199197
2.50591e-06
-0.0020567
-2.06251e-05
-0.00212415
-4.2802e-05
-0.00219744
-6.09402e-05
-0.00228046
-7.48286e-05
-0.00237659
-8.33512e-05
-0.00248674
-8.33352e-05
-0.00260841
-6.96072e-05
-0.00273422
-3.60006e-05
-0.00285118
2.59492e-05
-0.00295055
0.000133726
-0.00303458
0.000305412
-0.00311016
0.000562186
-0.00318279
0.000921307
-0.00325076
0.00137322
-0.00325757
0.0018317
-0.00309673
0.002096
-0.00211851
0.00139302
-0.000207947
-0.000424603
-0.00294865
-0.000788085
0.00425219
-0.000340341
0.000905021
-0.00101718
0.000246524
-0.00153624
0.000128566
-0.00188879
0.000174346
-0.00215144
0.000231545
-0.00233834
0.000282369
-0.00246761
0.00032443
-0.00255114
0.000338042
-0.00259468
0.000315534
-0.00261037
0.000266823
-0.00259781
0.000213194
-0.00256525
0.000162274
-0.00252721
0.000117566
-0.00249338
8.28554e-05
-0.00246806
5.74312e-05
-0.00245371
3.82282e-05
-0.00245004
2.26972e-05
-0.0024566
9.06152e-06
-0.00247128
-5.93891e-06
-0.00249488
-1.92054e-05
-0.002527
-2.88169e-05
-0.00256728
-3.45455e-05
-0.00261471
-3.59191e-05
-0.00266667
-3.1379e-05
-0.00271815
-1.81175e-05
-0.00276164
7.48926e-06
-0.00278378
4.80836e-05
-0.00276368
0.000113626
-0.00267725
0.00021899
-0.00249294
0.000377872
-0.00218299
0.000611358
-0.00174164
0.00093188
-0.00113655
0.00122661
-3.21545e-05
0.0009916
0.00183569
-0.000474828
0.00346884
-0.00205775
0.000611732
-0.00787771
-0.0111367
-0.00682918
-0.00589602
-0.0056303
-0.00548632
-0.0052989
-0.00505594
-0.00476331
-0.00442937
-0.00408223
-0.00375771
-0.00348178
-0.00325923
-0.00308733
-0.00295988
-0.00286691
-0.00279915
-0.00275042
-0.00271709
-0.00269733
-0.00269255
-0.00270107
-0.00271929
-0.00274336
-0.00276896
-0.00279022
-0.00279844
-0.00278131
-0.00272388
-0.00260124
-0.00237358
-0.00198742
-0.00136818
-0.000428844
0.000804692
0.00180294
0.00133507
-0.000716584
)
;

boundaryField
{
    floor
    {
        type            calculated;
        value           nonuniform List<scalar> 
29
(
0
0
0
0
0
0
0
0
0
0
0
0
0
0
0
0
0
0
0
0
-5.03144e-06
-1.27357e-05
-1.91979e-05
-2.50839e-05
-2.05654e-06
-3.70251e-06
-1.06478e-05
-1.13387e-05
-1.02247e-05
)
;
    }
    ceiling
    {
        type            calculated;
        value           nonuniform List<scalar> 
43
(
-5.93188e-05
-5.70902e-05
-5.5303e-05
-2.81427e-05
-1.91903e-05
-1.54158e-05
-1.30673e-05
-1.14125e-05
-1.02631e-05
-9.50627e-06
-9.09102e-06
-8.98494e-06
-9.11227e-06
-9.35359e-06
-9.62252e-06
-9.8809e-06
-1.01174e-05
-1.03268e-05
-1.05005e-05
-1.06278e-05
-1.07011e-05
-1.07169e-05
-1.0679e-05
-1.05973e-05
-1.04755e-05
-1.03167e-05
-1.01231e-05
-9.89638e-06
-9.63594e-06
-9.34091e-06
-9.01724e-06
-8.66594e-06
-8.28824e-06
-7.88405e-06
-7.45225e-06
-6.92646e-06
-6.65103e-06
-6.94905e-06
-6.10066e-06
-3.78778e-06
6.34256e-06
3.91211e-06
-8.44773e-05
)
;
    }
    sWall
    {
        type            calculated;
        value           uniform -0.000279636;
    }
    nWall
    {
        type            calculated;
        value           nonuniform List<scalar> 6(-5.42117e-05 -6.47053e-05 -6.99132e-05 -8.43604e-05 -9.15421e-05 -0.000101063);
    }
    sideWalls
    {
        type            empty;
        value           nonuniform 0();
    }
    glass1
    {
        type            calculated;
        value           nonuniform List<scalar> 9(-5.97803e-05 -0.000160601 -0.000245358 -0.000317522 -0.000378826 -0.000430566 -0.000477809 -0.000535077 -0.000599081);
    }
    glass2
    {
        type            calculated;
        value           nonuniform List<scalar> 2(-0.000295781 -0.00032674);
    }
    sun
    {
        type            calculated;
        value           uniform 0;
    }
    heatsource1
    {
        type            calculated;
        value           nonuniform List<scalar> 3(2.05037e-07 2.04922e-07 2.04941e-07);
    }
    heatsource2
    {
        type            calculated;
        value           nonuniform List<scalar> 4(5.14168e-08 5.1526e-08 0 0);
    }
    Table_master
    {
        type            calculated;
        value           nonuniform List<scalar> 9(-1.53789e-07 -1.53881e-07 -1.53913e-07 -1.53935e-07 -1.5395e-07 -1.5396e-07 -1.53965e-07 -1.53959e-07 -1.53926e-07);
    }
    Table_slave
    {
        type            calculated;
        value           nonuniform List<scalar> 9(1.53654e-07 1.53679e-07 1.5366e-07 1.53645e-07 1.53642e-07 1.53645e-07 1.53665e-07 1.53712e-07 1.53799e-07);
    }
    inlet
    {
        type            calculated;
        value           uniform -0.00623589;
    }
    outlet
    {
        type            calculated;
        value           nonuniform List<scalar> 2(0.00821666 0.00331606);
    }
}


// ************************************************************************* //
