// -*- C++ -*-
// File generated by PyFoam - sorry for the ugliness

FoamFile
{
 version 2.0;
 format ascii;
 class volScalarField;
 location "600";
 object T;
}

dimensions [ 0 0 0 1 0 0 0 ];

internalField nonuniform List<scalar> 459
(
  302.925
  302.647
  302.632
  302.627
  302.622
  302.618
  302.612
  302.607
  302.599
  302.589
  302.577
  302.566
  302.557
  302.552
  302.553
  302.667
  302.638
  302.626
  302.628
  302.632
  302.636
  302.64
  302.644
  302.648
  302.652
  302.655
  302.659
  302.662
  302.665
  302.668
  302.671
  302.674
  302.679
  302.698
  303.112
  302.688
  302.66
  302.661
  302.663
  302.663
  302.66
  302.654
  302.642
  302.622
  302.597
  302.572
  302.552
  302.538
  302.533
  302.532
  302.537
  302.667
  302.62
  302.61
  302.61
  302.614
  302.617
  302.619
  302.62
  302.622
  302.622
  302.623
  302.624
  302.625
  302.625
  302.627
  302.63
  302.636
  302.644
  302.679
  303.308
  302.74
  302.694
  302.701
  302.713
  302.722
  302.727
  302.725
  302.708
  302.675
  302.631
  302.589
  302.554
  302.533
  302.525
  302.526
  302.532
  302.582
  302.585
  302.594
  302.605
  302.615
  302.621
  302.621
  302.621
  302.621
  302.621
  302.621
  302.621
  302.62
  302.619
  302.619
  302.621
  302.624
  302.632
  302.67
  303.504
  302.807
  302.729
  302.74
  302.764
  302.789
  302.807
  302.813
  302.79
  302.738
  302.669
  302.605
  302.555
  302.526
  302.517
  302.521
  302.53
  302.545
  302.56
  302.581
  302.602
  302.621
  302.636
  302.646
  302.654
  302.661
  302.667
  302.673
  302.676
  302.679
  302.68
  302.681
  302.68
  302.658
  302.641
  302.635
  302.669
  303.694
  302.892
  302.774
  302.777
  302.809
  302.849
  302.888
  302.9
  302.865
  302.79
  302.694
  302.61
  302.549
  302.516
  302.507
  302.516
  302.533
  302.554
  302.579
  302.606
  302.632
  302.654
  302.671
  302.684
  302.695
  302.703
  302.709
  302.714
  302.716
  302.715
  302.712
  302.707
  302.699
  302.681
  302.659
  302.643
  302.663
  302.74
  302.779
  302.787
  303.864
  303.004
  302.857
  302.836
  302.864
  302.911
  302.962
  302.962
  302.903
  302.804
  302.692
  302.595
  302.528
  302.495
  302.493
  302.512
  302.542
  302.576
  302.61
  302.644
  302.673
  302.697
  302.714
  302.726
  302.735
  302.742
  302.746
  302.748
  302.747
  302.743
  302.736
  302.726
  302.715
  302.698
  302.675
  302.654
  302.659
  302.693
  302.708
  302.746
  304.02
  303.182
  303.041
  303.003
  303.007
  303.036
  303.047
  302.996
  302.892
  302.762
  302.635
  302.536
  302.478
  302.462
  302.479
  302.517
  302.565
  302.613
  302.657
  302.694
  302.722
  302.743
  302.757
  302.766
  302.772
  302.776
  302.778
  302.777
  302.774
  302.767
  302.756
  302.743
  302.729
  302.712
  302.691
  302.67
  302.665
  302.676
  302.687
  302.719
  304.248
  303.626
  303.474
  303.374
  303.306
  303.238
  303.118
  302.955
  302.776
  302.612
  302.488
  302.417
  302.399
  302.424
  302.476
  302.544
  302.612
  302.671
  302.719
  302.75
  302.771
  302.785
  302.794
  302.799
  302.803
  302.804
  302.804
  302.801
  302.797
  302.79
  302.78
  302.765
  302.752
  302.737
  302.721
  302.706
  302.704
  302.722
  302.749
  302.902
  304.574
  304.282
  303.979
  303.687
  303.411
  303.134
  302.824
  302.551
  302.353
  302.243
  302.214
  302.248
  302.326
  302.422
  302.52
  302.617
  302.693
  302.743
  302.775
  302.796
  302.81
  302.818
  302.824
  302.827
  302.828
  302.829
  302.828
  302.826
  302.823
  302.821
  302.82
  302.823
  302.828
  302.84
  302.861
  302.892
  302.934
  302.975
  303.001
  303.063
  293.594
  296.064
  297.919
  299.006
  299.875
  300.588
  301.158
  301.6
  301.94
  302.202
  302.414
  302.563
  302.66
  302.729
  302.774
  302.803
  302.821
  302.833
  302.84
  302.846
  302.849
  302.852
  302.854
  302.855
  302.857
  302.859
  302.861
  302.863
  302.866
  302.871
  302.878
  302.89
  302.909
  302.934
  302.964
  302.99
  303.008
  303.025
  294.773
  297.319
  299.381
  300.347
  300.976
  301.456
  301.832
  302.122
  302.338
  302.502
  302.626
  302.712
  302.768
  302.805
  302.829
  302.844
  302.853
  302.859
  302.864
  302.867
  302.87
  302.873
  302.875
  302.878
  302.88
  302.883
  302.885
  302.888
  302.891
  302.895
  302.901
  302.91
  302.923
  302.941
  302.96
  302.981
  302.977
  303.007
  298.292
  298.213
  298.207
  300.489
  301.412
  301.827
  302.091
  302.293
  302.452
  302.575
  302.67
  302.741
  302.793
  302.829
  302.853
  302.869
  302.878
  302.885
  302.889
  302.892
  302.894
  302.896
  302.897
  302.898
  302.9
  302.901
  302.902
  302.903
  302.905
  302.906
  302.907
  302.91
  302.913
  302.917
  302.924
  302.937
  302.949
  302.956
  302.958
  302.996
)
;

boundaryField
{
  floor
  {
    type wallHeatTransfer;
    Tinf uniform 305.2;
    alphaWall uniform 0.24;
    value nonuniform List<scalar> 29
(
  302.797
  303.136
  303.05
  303.013
  303.022
  303.038
  303.058
  303.08
  303.103
  303.126
  303.148
  303.169
  303.189
  303.208
  303.226
  303.244
  303.263
  303.284
  303.299
  303.345
  303.345
  303.224
  303.164
  303.131
  302.797
  303.136
  303.104
  302.85
  302.76
)
;
  }
  ceiling
  {
    type wallHeatTransfer;
    Tinf uniform 303.2;
    alphaWall uniform 0.24;
    value nonuniform List<scalar> 43
(
  298.616
  298.527
  298.511
  300.645
  301.518
  301.911
  302.161
  302.353
  302.504
  302.622
  302.712
  302.782
  302.834
  302.871
  302.896
  302.914
  302.925
  302.933
  302.937
  302.94
  302.942
  302.943
  302.943
  302.944
  302.944
  302.944
  302.944
  302.944
  302.944
  302.943
  302.943
  302.944
  302.945
  302.948
  302.953
  302.963
  302.973
  302.979
  302.982
  303.018
  304.512
  304.24
  295.277
)
;
  }
  sWall
  {
    type wallHeatTransfer;
    Tinf uniform 315.2;
    alphaWall uniform 0.36;
    value uniform 299.917;
  }
  nWall
  {
    type wallHeatTransfer;
    Tinf uniform 307.2;
    alphaWall uniform 0.36;
    value nonuniform List<scalar> 6
(
  303.581
  303.525
  303.441
  303.62
  303.599
  303.643
)
;
  }
  sideWalls
  {
    type empty;
  }
  glass1
  {
    type wallHeatTransfer;
    Tinf uniform 315.2;
    alphaWall uniform 4.3;
    value nonuniform List<scalar> 9
(
  311.314
  310.63
  310.198
  309.869
  309.594
  309.347
  309.167
  309.247
  309.491
)
;
  }
  glass2
  {
    type wallHeatTransfer;
    Tinf uniform 307.2;
    alphaWall uniform 4.3;
    value nonuniform List<scalar> 2
(
  305.522
  305.649
)
;
  }
  sun
  {
    type wallHeatTransfer;
    Tinf uniform 305.2;
    alphaWall uniform 0.24;
    value nonuniform List<scalar> 14
(
  303.165
  302.898
  302.882
  302.868
  302.857
  302.846
  302.835
  302.824
  302.812
  302.8
  302.79
  302.782
  302.78
  302.785
)
;
  }
  heatsource1
  {
    type fixedGradient;
    gradient uniform 0;
  }
  heatsource2
  {
    type fixedGradient;
    gradient uniform 0;
  }
  Table_master
  {
    type zeroGradient;
  }
  Table_slave
  {
    type zeroGradient;
  }
  inlet
  {
    type fixedValue;
    value uniform 290.15;
  }
  outlet
  {
    type zeroGradient;
  }
} 	// ************************************************************************* //

