/*--------------------------------*- C++ -*----------------------------------*\
  =========                 |
  \\      /  F ield         | OpenFOAM: The Open Source CFD Toolbox
   \\    /   O peration     | Website:  https://openfoam.org
    \\  /    A nd           | Version:  6
     \\/     M anipulation  |
\*---------------------------------------------------------------------------*/
FoamFile
{
    version     2.0;
    format      ascii;
    class       volScalarField;
    location    "400";
    object      nut;
}
// * * * * * * * * * * * * * * * * * * * * * * * * * * * * * * * * * * * * * //

dimensions      [0 2 -1 0 0 0 0];

internalField   nonuniform List<scalar> 
459
(
0.000748951
0.000770835
0.000715164
0.000743114
0.000772227
0.000799457
0.000825013
0.000849654
0.000874519
0.000898617
0.000917265
0.000928199
0.000928998
0.000917525
0.000889505
0.00049909
0.000593607
0.000562992
0.000555171
0.000532895
0.000473631
0.000414788
0.000343782
0.000274181
0.000221928
0.000199868
0.000204655
0.000223113
0.000243447
0.000270662
0.000341159
0.000536903
0.000651413
0.000563874
0.00126773
0.00216801
0.00161562
0.00207854
0.00225537
0.00244152
0.0026334
0.00281372
0.00295793
0.00305705
0.00310919
0.00308095
0.00291824
0.0025377
0.00184949
0.000926049
0.000681449
0.000700633
0.00234143
0.00190449
0.00157379
0.00128702
0.00101305
0.000633124
0.000513397
0.000416109
0.00036339
0.000360077
0.000412732
0.000473105
0.000459408
0.000352702
0.000518849
0.00109492
0.00144854
0.000632698
0.00171234
0.00345787
0.00169579
0.0029134
0.00322419
0.00339277
0.00353706
0.00365763
0.00374943
0.0038122
0.00383328
0.00377829
0.00359365
0.00320753
0.00256646
0.00174144
0.000952714
0.000879134
0.00254017
0.00204169
0.00158842
0.00124473
0.000926098
0.000376656
0.000309079
0.000275705
0.000250599
0.000238411
0.000231887
0.000227403
0.000224078
0.000253561
0.000868469
0.00148187
0.00132562
0.000753205
0.00213161
0.00509636
0.00180377
0.00315319
0.0037329
0.00387597
0.00396844
0.0040452
0.00411196
0.00416674
0.00421517
0.00423384
0.00417477
0.00395403
0.00346283
0.00264793
0.00168411
0.00104489
0.00180829
0.00228426
0.00197699
0.00168673
0.00141899
0.00111905
0.000851703
0.000875438
0.000908527
0.000944459
0.000953101
0.000960765
0.000967054
0.000961263
0.00093426
0.00104025
0.00126882
0.00164514
0.000953561
0.00252222
0.00693121
0.00225529
0.002952
0.00391801
0.00408339
0.00414533
0.00419463
0.00424755
0.00430983
0.00440177
0.00454206
0.00471392
0.00486886
0.00492933
0.00481218
0.00447595
0.0039214
0.00323382
0.00313377
0.00302685
0.0029117
0.00285846
0.00284587
0.00287607
0.00299442
0.00318505
0.00347552
0.0037736
0.00385464
0.00384688
0.00375505
0.00358195
0.00328087
0.00281215
0.00236378
0.0018169
0.000958103
0.000853697
0.000991876
0.00288947
0.00863583
0.00331996
0.00259084
0.00374449
0.00406538
0.00415609
0.00419078
0.00420205
0.0042143
0.00427545
0.00443924
0.00470243
0.00503532
0.00536853
0.00559202
0.00558593
0.0052949
0.00479195
0.00425238
0.00380364
0.00352456
0.00336325
0.00324737
0.00315905
0.0031304
0.00321096
0.00352073
0.00403387
0.0042165
0.00421704
0.00414135
0.00404735
0.00392271
0.00361822
0.00315985
0.00257218
0.00178279
0.00179256
0.00106113
0.00324264
0.00992058
0.00544761
0.00280684
0.00281557
0.00344787
0.00388527
0.00410998
0.00416782
0.00405525
0.00401042
0.00409153
0.00429245
0.00460644
0.00499364
0.00535625
0.00555153
0.00546487
0.00512192
0.00465584
0.00422567
0.00391034
0.00368599
0.00348616
0.00327038
0.00305755
0.00293905
0.00320265
0.00390878
0.00418344
0.00416871
0.0041019
0.00410139
0.00417006
0.00414902
0.00380533
0.00329936
0.002769
0.00239792
0.00127774
0.00333362
0.0102687
0.00757153
0.00521204
0.00360371
0.00309803
0.00341287
0.00385758
0.00414141
0.00392221
0.00377396
0.00373904
0.00380658
0.00397336
0.00423814
0.0045678
0.00485909
0.00494673
0.00482472
0.00456142
0.00427562
0.00405226
0.00390278
0.00377509
0.00357721
0.00321954
0.00279636
0.00291386
0.00391136
0.00427184
0.00419274
0.00408162
0.00412772
0.00438921
0.00483853
0.00494933
0.00481692
0.00453276
0.00465915
0.00164306
0.00324878
0.00392353
0.00430786
0.00430344
0.00394799
0.00352063
0.00324158
0.00313833
0.00313522
0.00316265
0.00320527
0.00325916
0.00332622
0.00341392
0.0035347
0.00369668
0.00387883
0.0040189
0.0040703
0.00403457
0.00395936
0.0038985
0.00389154
0.00394795
0.00396917
0.00363035
0.00279353
0.00257463
0.00394697
0.00450992
0.00428955
0.00392956
0.00366814
0.00347923
0.00332868
0.00318152
0.00296387
0.00266616
0.00240689
0.00156666
0.00224287
0.00332517
0.00363729
0.00355751
0.00339314
0.00325263
0.00315193
0.0030836
0.00304734
0.00303072
0.00302374
0.00302288
0.00303248
0.00306301
0.00312371
0.00321253
0.00331798
0.00342956
0.00354267
0.00365454
0.00378428
0.00400789
0.00431809
0.00419511
0.00292613
0.00212185
0.00371282
0.00480229
0.00471233
0.00428419
0.00397185
0.00376563
0.00354087
0.00324639
0.00286721
0.00242918
0.00199974
0.00133959
0.0023531
0.00376536
0.00393411
0.00379944
0.00361497
0.00343216
0.00326696
0.0031199
0.0029696
0.00280673
0.00264737
0.00250473
0.0023913
0.00232012
0.00230486
0.00235693
0.00248013
0.00266487
0.00288571
0.00310567
0.00330917
0.00356367
0.00391197
0.00387912
0.0027822
0.00170936
0.00302327
0.00434747
0.00448087
0.00420982
0.00398743
0.00390087
0.00386726
0.00379612
0.00360748
0.00330248
0.00266737
0.00136906
0.00210689
0.00219264
0.00227223
0.00240375
0.00224011
0.00203847
0.00189359
0.00176825
0.00165729
0.00155792
0.00147009
0.00139246
0.00132145
0.00125529
0.0011934
0.00113601
0.00108399
0.0010387
0.0010017
0.00097443
0.000957618
0.000950698
0.000952446
0.000963621
0.000983131
0.000993183
0.000958117
0.000938412
0.00106878
0.00112518
0.00114594
0.00117641
0.00123459
0.00131865
0.0014276
0.00153685
0.0015687
0.00152555
0.00141352
0.00129972
)
;

boundaryField
{
    floor
    {
        type            nutkWallFunction;
        Cmu             0.09;
        kappa           0.41;
        E               9.8;
        value           nonuniform List<scalar> 
29
(
0.000107632
5.96183e-05
7.15572e-05
6.77355e-05
6.67594e-05
6.39511e-05
5.63922e-05
4.87585e-05
3.93754e-05
2.99103e-05
2.25817e-05
1.9406e-05
2.00837e-05
2.2717e-05
2.55899e-05
2.93783e-05
3.89544e-05
6.43767e-05
7.8803e-05
6.78581e-05
6.7858e-05
7.64739e-05
9.12603e-05
0.000115243
0.000107632
5.96182e-05
8.4823e-05
0.000106404
0.000125988
)
;
    }
    ceiling
    {
        type            nutkWallFunction;
        Cmu             0.09;
        kappa           0.41;
        E               9.8;
        value           nonuniform List<scalar> 
43
(
0.00024492
0.000254182
0.000262747
0.000276881
0.000259357
0.000237559
0.000221751
0.000207969
0.00019568
0.000184597
0.000174738
0.000165969
0.0001579
0.00015034
0.000143226
0.000136592
0.000130546
0.000125255
0.000120914
0.000117702
0.000115716
0.000114898
0.000115105
0.000116428
0.00011873
0.000119891
0.000115751
0.000113469
0.000128793
0.000135333
0.000137734
0.000141261
0.000147963
0.000157582
0.000169943
0.000182237
0.0001858
0.000180966
0.000168348
0.000155419
0.000365902
0.000435099
0.000271375
)
;
    }
    sWall
    {
        type            nutkWallFunction;
        Cmu             0.09;
        kappa           0.41;
        E               9.8;
        value           uniform 0.000244984;
    }
    nWall
    {
        type            nutkWallFunction;
        Cmu             0.09;
        kappa           0.41;
        E               9.8;
        value           nonuniform List<scalar> 6(0.000119772 0.000127914 0.000152947 0.000159979 0.000163326 0.000155432);
    }
    sideWalls
    {
        type            empty;
    }
    glass1
    {
        type            nutkWallFunction;
        Cmu             0.09;
        kappa           0.41;
        E               9.8;
        value           nonuniform List<scalar> 9(9.06888e-05 0.00015194 0.000202095 0.000248074 0.000290037 0.000328867 0.000365727 0.000375165 0.000366397);
    }
    glass2
    {
        type            nutkWallFunction;
        Cmu             0.09;
        kappa           0.41;
        E               9.8;
        value           nonuniform List<scalar> 2(0.000194258 0.000185711);
    }
    sun
    {
        type            nutkWallFunction;
        Cmu             0.09;
        kappa           0.41;
        E               9.8;
        value           nonuniform List<scalar> 
14
(
9.07066e-05
9.33647e-05
8.65882e-05
8.99992e-05
9.35359e-05
9.68295e-05
9.99085e-05
0.000102867
0.000105842
0.000108716
0.000110933
0.000112231
0.000112327
0.000110965
)
;
    }
    heatsource1
    {
        type            nutkWallFunction;
        Cmu             0.09;
        kappa           0.41;
        E               9.8;
        value           nonuniform List<scalar> 3(0.000115773 0.000103343 0.000119762);
    }
    heatsource2
    {
        type            nutkWallFunction;
        Cmu             0.09;
        kappa           0.41;
        E               9.8;
        value           nonuniform List<scalar> 4(0.000111976 8.24595e-05 8.24595e-05 0.000115136);
    }
    Table_master
    {
        type            nutkWallFunction;
        Cmu             0.09;
        kappa           0.41;
        E               9.8;
        value           nonuniform List<scalar> 9(4.37446e-05 3.46905e-05 3.01265e-05 2.66409e-05 2.49327e-05 2.40142e-05 2.33812e-05 2.29112e-05 2.702e-05);
    }
    Table_slave
    {
        type            nutkWallFunction;
        Cmu             0.09;
        kappa           0.41;
        E               9.8;
        value           nonuniform List<scalar> 9(0.000103121 0.000105959 0.0001099 0.000114151 0.000115158 0.00011606 0.000116799 0.00011611 0.000112911);
    }
    inlet
    {
        type            calculated;
        value           uniform 0.000100623;
    }
    outlet
    {
        type            calculated;
        value           nonuniform List<scalar> 2(0.00210689 0.00219264);
    }
}


// ************************************************************************* //
