/*--------------------------------*- C++ -*----------------------------------*\
  =========                 |
  \\      /  F ield         | OpenFOAM: The Open Source CFD Toolbox
   \\    /   O peration     | Website:  https://openfoam.org
    \\  /    A nd           | Version:  6
     \\/     M anipulation  |
\*---------------------------------------------------------------------------*/
FoamFile
{
    version     2.0;
    format      ascii;
    class       volScalarField;
    location    "1300";
    object      nut;
}
// * * * * * * * * * * * * * * * * * * * * * * * * * * * * * * * * * * * * * //

dimensions      [0 2 -1 0 0 0 0];

internalField   nonuniform List<scalar> 
459
(
0.00113014
0.00123655
0.00125881
0.00132053
0.00137833
0.00143296
0.00148712
0.0015379
0.00157261
0.00158556
0.00157163
0.00152762
0.00145286
0.00135265
0.00124173
0.000509097
0.000616405
0.000690595
0.000685952
0.000662198
0.000631179
0.00059233
0.00055384
0.000518874
0.000487789
0.000460226
0.000435711
0.000413947
0.000394372
0.00037632
0.000358929
0.000341007
0.000330936
0.000304301
0.00154347
0.00384923
0.00371245
0.00433307
0.00494189
0.00554449
0.00606325
0.0064661
0.00682356
0.00710767
0.00728077
0.00730159
0.00710669
0.00653477
0.0049641
0.00127327
0.000708131
0.00054595
0.00113065
0.00156722
0.00188598
0.00205526
0.00204741
0.00164445
0.00141955
0.00125875
0.00113517
0.00103674
0.000956421
0.000885994
0.000820678
0.000757771
0.000702181
0.000652273
0.000784241
0.000408021
0.00188507
0.00526666
0.00462693
0.00581683
0.0064177
0.00686623
0.00721584
0.00750525
0.00781022
0.00811824
0.00839103
0.0085801
0.00862942
0.00845132
0.00780327
0.00591991
0.00128822
0.00106708
0.00154344
0.00198107
0.00237843
0.002649
0.00257198
0.000841088
0.000742844
0.00066402
0.000600505
0.00054882
0.000506301
0.000471049
0.000441836
0.000418193
0.00045195
0.000522231
0.000891182
0.000478681
0.0022107
0.00671686
0.00467556
0.0061691
0.00670575
0.00690826
0.00705354
0.00722651
0.0074855
0.0078136
0.00816404
0.00847694
0.00869023
0.00873365
0.008537
0.00781542
0.00547017
0.00152331
0.00191099
0.00248192
0.00302984
0.00345827
0.00371104
0.00345505
0.000945884
0.000862433
0.000803558
0.000758832
0.000720354
0.000684422
0.000649785
0.000613286
0.000570749
0.000535377
0.000551169
0.00105293
0.000530253
0.00254077
0.00855608
0.0051875
0.00598261
0.00666397
0.00674567
0.00672664
0.00685001
0.00708581
0.00743072
0.0078298
0.00820193
0.00845889
0.00853963
0.00843203
0.00810077
0.00735919
0.00606907
0.0056224
0.0054704
0.00540799
0.00535772
0.00527518
0.00504213
0.00422838
0.00384822
0.0036285
0.0034566
0.00327414
0.00301249
0.00265924
0.00223604
0.00177301
0.00131512
0.0009722
0.0010242
0.000698219
0.000646717
0.000771426
0.000864262
0.00288864
0.0105445
0.00712216
0.00608898
0.00657175
0.00675648
0.00667806
0.00676401
0.00694786
0.00726358
0.00768233
0.00809851
0.00838348
0.00844923
0.00829343
0.0079925
0.00764101
0.00729314
0.00708088
0.00689518
0.00667786
0.00643794
0.00618282
0.00588919
0.00549885
0.00516816
0.00488641
0.00462426
0.00436356
0.00408435
0.00372414
0.00326732
0.00271694
0.002112
0.00158098
0.00117166
0.000930609
0.000824959
0.00119449
0.000907459
0.00319784
0.0118985
0.00983066
0.00785395
0.00750607
0.00729695
0.00702507
0.00690181
0.00700217
0.0073294
0.00780267
0.00826968
0.00856488
0.00858506
0.00834414
0.00798597
0.00771716
0.00762431
0.0075735
0.00739844
0.00708623
0.00669733
0.00627581
0.00584718
0.0054348
0.00508148
0.00477613
0.00450229
0.00425564
0.0040403
0.00385339
0.00355401
0.00311567
0.00258224
0.0020793
0.00162434
0.00133485
0.00128696
0.00135801
0.00105187
0.00325118
0.0104103
0.00938436
0.00872507
0.00806944
0.00738969
0.00694162
0.00684726
0.00710517
0.0076253
0.00824422
0.00875804
0.0089913
0.00887275
0.008477
0.00803495
0.00780319
0.00776796
0.00760341
0.00720962
0.00667314
0.00608445
0.00551451
0.00501666
0.00461536
0.00430162
0.00404953
0.00384535
0.0036889
0.00358682
0.00354637
0.00353211
0.00327604
0.0029234
0.00262612
0.00251157
0.00271432
0.00332054
0.0041586
0.00161258
0.00315885
0.00372554
0.00411241
0.00420045
0.00439661
0.00483951
0.0055514
0.00648958
0.00753556
0.00852168
0.00926769
0.00961738
0.00950579
0.00902243
0.00840684
0.00799443
0.00769291
0.00735523
0.00684208
0.00617918
0.00547081
0.00481874
0.00428443
0.00387951
0.00357963
0.00334987
0.0031635
0.00300594
0.00286873
0.00274499
0.00262877
0.0025212
0.00243728
0.00238368
0.00237968
0.00241144
0.00240567
0.00229848
0.00213182
0.0014813
0.00147474
0.00368015
0.00660473
0.00853654
0.00983287
0.0106478
0.0110155
0.0110032
0.0106876
0.010146
0.00936831
0.00851196
0.00779924
0.00726175
0.00670788
0.00605515
0.00534792
0.00465655
0.00404899
0.00357866
0.00323738
0.00299178
0.00280925
0.00266728
0.00255332
0.00246185
0.00239168
0.00234483
0.00232652
0.00233589
0.00235988
0.00239452
0.00242785
0.00242758
0.00234574
0.00216697
0.00190211
0.00119421
0.00219989
0.00666059
0.00927947
0.00997642
0.010221
0.0101203
0.00969403
0.00906037
0.00833055
0.00760354
0.006915
0.00630507
0.00576765
0.00522331
0.00465015
0.00410153
0.0036193
0.00321848
0.00289614
0.00265325
0.0024747
0.00234427
0.0022518
0.00219215
0.0021624
0.00215925
0.00217733
0.0022092
0.0022666
0.00234376
0.00243591
0.00253447
0.00262202
0.00268495
0.00267294
0.00267104
0.00239425
0.00120916
0.0019671
0.00208568
0.00217139
0.00233957
0.00224995
0.00216416
0.00209712
0.00200017
0.00186806
0.00170851
0.00152938
0.00134528
0.00117707
0.00103978
0.000935463
0.000858456
0.000801924
0.000760655
0.000731561
0.00071309
0.000704435
0.000702652
0.000706578
0.000715552
0.00072921
0.000747413
0.000770212
0.000797903
0.000831192
0.000871337
0.000917372
0.000969819
0.00102898
0.00109523
0.00116837
0.00126697
0.00129324
0.00126042
0.00117566
0.00108397
)
;

boundaryField
{
    floor
    {
        type            nutkWallFunction;
        Cmu             0.09;
        kappa           0.41;
        E               9.8;
        value           nonuniform List<scalar> 
29
(
0.000148791
6.08799e-05
7.43975e-05
8.35737e-05
8.30034e-05
8.00766e-05
7.62356e-05
7.13923e-05
6.65554e-05
6.21255e-05
5.81562e-05
5.46103e-05
5.14341e-05
4.85954e-05
4.60259e-05
4.3642e-05
4.13313e-05
3.8935e-05
3.75812e-05
3.39741e-05
3.3974e-05
4.78184e-05
5.69864e-05
6.35698e-05
0.000148791
6.08798e-05
6.55578e-05
0.000128577
0.000180734
)
;
    }
    ceiling
    {
        type            nutkWallFunction;
        Cmu             0.09;
        kappa           0.41;
        E               9.8;
        value           nonuniform List<scalar> 
43
(
0.000229619
0.000242496
0.000251759
0.000269965
0.000260402
0.000251178
0.000243936
0.000233411
0.000218973
0.000201383
0.000181418
0.000160627
0.000141351
0.000125388
0.000113097
0.000103923
9.71275e-05
9.21308e-05
8.85891e-05
8.63318e-05
8.52716e-05
8.50529e-05
8.55341e-05
8.66327e-05
8.83017e-05
9.05204e-05
9.32902e-05
9.66415e-05
0.000100652
0.000105464
0.000110951
0.000117162
0.000124123
0.000131864
0.000140349
0.000151693
0.000154699
0.000150943
0.000141192
0.000130553
0.000356617
0.000414981
0.000254629
)
;
    }
    sWall
    {
        type            nutkWallFunction;
        Cmu             0.09;
        kappa           0.41;
        E               9.8;
        value           uniform 0.000229684;
    }
    nWall
    {
        type            nutkWallFunction;
        Cmu             0.09;
        kappa           0.41;
        E               9.8;
        value           nonuniform List<scalar> 6(0.00010462 0.000109775 0.000126809 0.000143343 0.000145066 0.000130561);
    }
    sideWalls
    {
        type            empty;
    }
    glass1
    {
        type            nutkWallFunction;
        Cmu             0.09;
        kappa           0.41;
        E               9.8;
        value           nonuniform List<scalar> 9(0.000136047 0.000183251 0.000221185 0.000256652 0.000292035 0.000328807 0.000361107 0.000366657 0.000357083);
    }
    glass2
    {
        type            nutkWallFunction;
        Cmu             0.09;
        kappa           0.41;
        E               9.8;
        value           nonuniform List<scalar> 2(0.000190824 0.000176106);
    }
    sun
    {
        type            nutkWallFunction;
        Cmu             0.09;
        kappa           0.41;
        E               9.8;
        value           nonuniform List<scalar> 
14
(
0.000135923
0.000148199
0.000150753
0.000157806
0.00016438
0.000170564
0.00017667
0.000182372
0.000186258
0.000187704
0.000186146
0.000181217
0.000172808
0.000161461
)
;
    }
    heatsource1
    {
        type            nutkWallFunction;
        Cmu             0.09;
        kappa           0.41;
        E               9.8;
        value           nonuniform List<scalar> 3(7.81632e-05 9.34375e-05 0.000104617);
    }
    heatsource2
    {
        type            nutkWallFunction;
        Cmu             0.09;
        kappa           0.41;
        E               9.8;
        value           nonuniform List<scalar> 4(0.0001524 8.57234e-05 8.57234e-05 0.000154111);
    }
    Table_master
    {
        type            nutkWallFunction;
        Cmu             0.09;
        kappa           0.41;
        E               9.8;
        value           nonuniform List<scalar> 9(0.000101841 8.99658e-05 8.03037e-05 7.24181e-05 6.59267e-05 6.05303e-05 5.60137e-05 5.2239e-05 4.91611e-05);
    }
    Table_slave
    {
        type            nutkWallFunction;
        Cmu             0.09;
        kappa           0.41;
        E               9.8;
        value           nonuniform List<scalar> 9(0.00011433 0.000104399 9.73248e-05 9.19102e-05 8.72217e-05 8.28166e-05 7.85439e-05 7.40118e-05 6.86885e-05);
    }
    inlet
    {
        type            calculated;
        value           uniform 0.000100623;
    }
    outlet
    {
        type            calculated;
        value           nonuniform List<scalar> 2(0.0019671 0.00208568);
    }
}


// ************************************************************************* //
