/*--------------------------------*- C++ -*----------------------------------*\
  =========                 |
  \\      /  F ield         | OpenFOAM: The Open Source CFD Toolbox
   \\    /   O peration     | Website:  https://openfoam.org
    \\  /    A nd           | Version:  6
     \\/     M anipulation  |
\*---------------------------------------------------------------------------*/
FoamFile
{
    version     2.0;
    format      ascii;
    class       volScalarField;
    location    "2400";
    object      alphat;
}
// * * * * * * * * * * * * * * * * * * * * * * * * * * * * * * * * * * * * * //

dimensions      [1 -1 -1 0 0 0 0];

internalField   nonuniform List<scalar> 
459
(
0.00132307
0.00145016
0.00147818
0.0015512
0.00161965
0.00168455
0.00174925
0.00180879
0.00184891
0.00186281
0.00184459
0.00179058
0.00169967
0.00157725
0.00143902
0.0005992
0.000724457
0.000814649
0.000812521
0.000785736
0.000749626
0.000703387
0.000657342
0.000615522
0.000578389
0.000545506
0.000516294
0.000490342
0.000467035
0.000445561
0.000424883
0.000403554
0.00039039
0.000357909
0.00179993
0.00450848
0.0043553
0.00508299
0.0058012
0.00650955
0.00711202
0.00758652
0.00800695
0.00834014
0.00854299
0.00857109
0.00835663
0.00772517
0.00597344
0.00147869
0.000854828
0.000637533
0.00134038
0.00186883
0.00225553
0.00246226
0.00245157
0.0019546
0.00168156
0.0014875
0.00133897
0.00122109
0.00112524
0.00104233
0.000965312
0.000890751
0.000824606
0.000766185
0.000916206
0.000474559
0.00219303
0.00616449
0.00543499
0.00679894
0.00749353
0.00801381
0.00841946
0.00876428
0.00912959
0.00949883
0.00982481
0.0100537
0.0101226
0.00992352
0.00915698
0.00693338
0.00151293
0.00123606
0.00180811
0.00234197
0.0028288
0.00316036
0.00306969
0.000998181
0.000880794
0.000786462
0.000710405
0.000648511
0.000597605
0.000555417
0.000520496
0.000492281
0.000531497
0.000614785
0.00104181
0.000554395
0.00256697
0.00784253
0.00549574
0.00720007
0.0077993
0.00802737
0.00819881
0.0084146
0.00873179
0.00913103
0.00954996
0.00992364
0.0101806
0.0102299
0.0100003
0.0091373
0.00624708
0.00178483
0.00223069
0.00290485
0.00356755
0.00409321
0.00440528
0.00410664
0.00112264
0.00102215
0.000950492
0.00089561
0.000848392
0.000805121
0.000763434
0.000719668
0.000668928
0.000626662
0.000646108
0.00122421
0.000613509
0.00294587
0.00997065
0.0060865
0.00699525
0.00774301
0.00782226
0.00780809
0.00797192
0.0082623
0.008686
0.00916042
0.0095989
0.00989637
0.00998786
0.00986449
0.00948345
0.00861444
0.00714563
0.00664373
0.0064857
0.00642956
0.00637873
0.00627995
0.00599707
0.00502106
0.00455623
0.00428493
0.00407378
0.00385238
0.00353426
0.00311529
0.0026176
0.00207383
0.00153506
0.00113547
0.00119872
0.000806322
0.00074647
0.000891715
0.000999029
0.00334559
0.0122749
0.0083346
0.00713995
0.00767818
0.007818
0.00776916
0.00787653
0.00810484
0.00849313
0.00899706
0.00948553
0.00980851
0.00987243
0.00968797
0.00935386
0.00897856
0.00861828
0.00840737
0.00821466
0.00797144
0.00768932
0.00738187
0.00702717
0.00655692
0.00615653
0.00581521
0.00549794
0.00518178
0.00483675
0.00439722
0.00384715
0.00319068
0.0024735
0.001849
0.00137885
0.00108164
0.000953379
0.001379
0.00104862
0.0037001
0.0138352
0.0114735
0.00919307
0.00879905
0.00849264
0.00816199
0.00802998
0.00817385
0.00858549
0.00915712
0.00970175
0.010028
0.0100287
0.00974085
0.00935014
0.00909629
0.00905131
0.00903087
0.00884424
0.00848472
0.00802815
0.00752984
0.00701911
0.00652115
0.00608946
0.00571487
0.00537872
0.00507525
0.0048081
0.00457238
0.00419797
0.00366907
0.00303443
0.00243988
0.00190717
0.00155781
0.00149176
0.00156671
0.00121286
0.00375853
0.0120604
0.0108956
0.0100848
0.00930128
0.00851659
0.00803094
0.00797091
0.00832276
0.0089692
0.00970737
0.0102934
0.0105316
0.0103595
0.00989333
0.00942425
0.00923524
0.00925405
0.00908843
0.00864474
0.00802486
0.00733205
0.00664819
0.00603872
0.00553959
0.0051469
0.00483173
0.00457643
0.00437904
0.004246
0.00418429
0.00414701
0.0038355
0.00341582
0.00306152
0.00291615
0.00312801
0.00380466
0.00476678
0.00186416
0.00364807
0.00430541
0.00474771
0.00485888
0.00511135
0.00566785
0.00654627
0.00768581
0.00893704
0.0100942
0.0109395
0.0112924
0.0111015
0.0105011
0.00981492
0.00939527
0.00910832
0.00876005
0.00819426
0.00743488
0.00659782
0.00580255
0.00513403
0.00462083
0.00424187
0.00395577
0.00372752
0.00353627
0.00336924
0.00321659
0.00307058
0.0029356
0.00282882
0.00275912
0.00274905
0.00278289
0.00277612
0.00265484
0.00246421
0.00171375
0.00173835
0.00438548
0.00790071
0.0101787
0.011679
0.0125973
0.0129826
0.0129181
0.012497
0.0118211
0.010849
0.00984642
0.00907045
0.00850882
0.00792311
0.00720309
0.00638587
0.00555858
0.00480495
0.00420079
0.00375996
0.00344948
0.00322767
0.00306242
0.00293438
0.00283384
0.00275742
0.00270634
0.00268644
0.00269581
0.00272114
0.00275885
0.00279574
0.00279489
0.00270102
0.00249579
0.00219342
0.00138058
0.00261912
0.00802094
0.0110151
0.011788
0.0120264
0.0118582
0.011314
0.010534
0.00965194
0.00878913
0.00797036
0.00727207
0.0066804
0.0060802
0.00542924
0.00477852
0.00418345
0.00367909
0.00327881
0.00297386
0.00275702
0.0026079
0.00251019
0.00245388
0.00243271
0.00244114
0.00247214
0.00251944
0.00259261
0.00268577
0.00279435
0.00290943
0.00301149
0.00308353
0.0030683
0.00306685
0.00276871
0.00139789
0.00231678
0.0024579
0.0025593
0.00273922
0.00262495
0.00252219
0.00243927
0.0023202
0.00215981
0.00196742
0.00175301
0.00153493
0.00133887
0.00118087
0.00106165
0.000973636
0.000908591
0.000860736
0.000826949
0.000805657
0.00079567
0.000795183
0.000801612
0.00081397
0.000831662
0.00085443
0.000882292
0.000915585
0.000955127
0.00100205
0.00105559
0.0011163
0.00118463
0.00126111
0.00134566
0.00145801
0.00148937
0.00145202
0.00135422
0.00124873
)
;

boundaryField
{
    floor
    {
        type            compressible::alphatWallFunction;
        Prt             0.85;
        value           nonuniform List<scalar> 
29
(
0.000202725
8.42214e-05
0.000102751
0.000115851
0.000115545
0.000111672
0.000106426
9.96634e-05
9.28759e-05
8.66608e-05
8.10988e-05
7.61365e-05
7.16972e-05
6.77267e-05
6.41386e-05
6.08126e-05
5.75905e-05
5.42459e-05
5.21707e-05
4.70108e-05
4.70102e-05
6.53001e-05
7.74824e-05
8.63617e-05
0.000202723
8.42204e-05
8.99376e-05
0.00017508
0.000248867
)
;
    }
    ceiling
    {
        type            compressible::alphatWallFunction;
        Prt             0.85;
        value           nonuniform List<scalar> 
43
(
0.000317864
0.000335898
0.000348791
0.000371691
0.000357323
0.000344318
0.000333777
0.000318564
0.000297929
0.000272955
0.000244802
0.000215775
0.000189283
0.000167614
0.000151045
0.000138674
0.000129448
0.00012261
0.000117756
0.000114684
0.000113241
0.00011317
0.0001141
0.000115885
0.000118435
0.000121706
0.000125696
0.000130444
0.000136057
0.000142682
0.000150198
0.000158668
0.000168136
0.000178661
0.000190213
0.000205438
0.000209664
0.00020463
0.000191381
0.000176968
0.000484677
0.000564361
0.00035613
)
;
    }
    sWall
    {
        type            compressible::alphatWallFunction;
        Prt             0.85;
        value           uniform 0.000316592;
    }
    nWall
    {
        type            compressible::alphatWallFunction;
        Prt             0.85;
        value           nonuniform List<scalar> 6(0.000141908 0.000148867 0.000171663 0.000194614 0.000196959 0.000176621);
    }
    sideWalls
    {
        type            empty;
    }
    glass1
    {
        type            compressible::alphatWallFunction;
        Prt             0.85;
        value           nonuniform List<scalar> 9(0.000182256 0.000245242 0.000295922 0.000343326 0.000390688 0.000440016 0.000483309 0.00049055 0.000477386);
    }
    glass2
    {
        type            compressible::alphatWallFunction;
        Prt             0.85;
        value           nonuniform List<scalar> 2(0.00025734 0.000237683);
    }
    sun
    {
        type            compressible::alphatWallFunction;
        Prt             0.85;
        value           nonuniform List<scalar> 
14
(
0.00018701
0.000204234
0.000208012
0.000217819
0.000226967
0.0002356
0.000244171
0.000252027
0.000257304
0.000259129
0.000256735
0.000249624
0.000237603
0.000221301
)
;
    }
    heatsource1
    {
        type            compressible::alphatWallFunction;
        Prt             0.85;
        value           nonuniform List<scalar> 3(0.000106119 0.000127068 0.000142283);
    }
    heatsource2
    {
        type            compressible::alphatWallFunction;
        Prt             0.85;
        value           nonuniform List<scalar> 4(0.000208253 0.000121789 0.000121787 0.000212857);
    }
    Table_master
    {
        type            compressible::alphatWallFunction;
        Prt             0.85;
        value           nonuniform List<scalar> 9(0.000142161 0.000125505 0.00011193 0.000100843 9.17141e-05 8.41263e-05 7.77775e-05 7.24769e-05 6.81617e-05);
    }
    Table_slave
    {
        type            compressible::alphatWallFunction;
        Prt             0.85;
        value           nonuniform List<scalar> 9(0.000159576 0.000145535 0.000135426 0.000127623 0.000120865 0.000114632 0.000108589 0.000102203 9.47388e-05);
    }
    inlet
    {
        type            fixedValue;
        value           uniform 1.94e-05;
    }
    outlet
    {
        type            zeroGradient;
    }
}


// ************************************************************************* //
