/*--------------------------------*- C++ -*----------------------------------*\
  =========                 |
  \\      /  F ield         | OpenFOAM: The Open Source CFD Toolbox
   \\    /   O peration     | Website:  https://openfoam.org
    \\  /    A nd           | Version:  6
     \\/     M anipulation  |
\*---------------------------------------------------------------------------*/
FoamFile
{
    version     2.0;
    format      ascii;
    class       surfaceScalarField;
    location    "900";
    object      phi;
}
// * * * * * * * * * * * * * * * * * * * * * * * * * * * * * * * * * * * * * //

dimensions      [1 0 -1 0 0 0 0];

internalField   nonuniform List<scalar> 
852
(
-0.00299895
0.00305892
-0.00402186
0.00102292
-0.00480263
0.000780773
-0.00542413
0.000621508
-0.00585757
0.000433446
-0.00608307
0.000225506
-0.0060808
-2.26816e-06
-0.00583092
-0.000249876
-0.00533404
-0.000496869
-0.00462517
-0.000708863
-0.00376943
-0.000855735
-0.002848
-0.000921424
-0.00193031
-0.000917684
-0.00102317
-0.000907142
-0.00102121
-0.000691355
0.000695079
-0.000249539
-0.000441807
0.000433357
-0.000682887
0.000918919
-0.000485554
0.0012215
-0.000302571
0.00139817
-0.000176663
0.00148868
-9.05017e-05
0.00153243
-4.37327e-05
0.00155559
-2.31506e-05
0.00156781
-1.22139e-05
0.00157242
-4.60169e-06
0.00157037
2.05976e-06
0.00155935
1.10316e-05
0.00153029
2.90792e-05
0.00145961
7.06914e-05
0.00130845
0.000151166
0.00106636
0.000242107
0.000784972
0.0002814
0.000790077
-0.00212866
0.00534843
-0.00313146
0.00202572
-0.0039327
0.00158202
-0.00453851
0.00122732
-0.00495851
0.000853453
-0.00518406
0.000451061
-0.00519317
6.84804e-06
-0.00496704
-0.000475997
-0.00451497
-0.000948939
-0.00388214
-0.00134169
-0.00313755
-0.00160032
-0.00235956
-0.00169942
-0.00162316
-0.00165407
-0.00103383
-0.00149647
-0.000839304
-0.00121574
-0.000189247
-0.000650101
-0.000189291
0.000594271
0.000111216
0.00100339
-0.000850915
0.00121875
-0.00089824
0.00141689
-0.000683688
0.00156033
-0.000446005
0.00163554
-0.000251859
0.00164308
-9.80387e-05
0.00164483
-4.54647e-05
0.0016474
-2.57106e-05
0.00164956
-1.43635e-05
0.00165084
-5.87263e-06
0.00165099
1.91909e-06
0.00164896
1.30678e-05
0.00164083
3.72268e-05
0.00159566
0.000115872
0.00140572
0.000341117
0.00108252
0.000565319
0.000686089
0.000677845
0.00148897
-0.00148563
0.00707936
-0.00235612
0.00289622
-0.0030599
0.0022858
-0.00356865
0.00173607
-0.0039268
0.00121161
-0.00412408
0.000648355
-0.00412238
5.1466e-06
-0.00389091
-0.000707455
-0.0034544
-0.00138545
-0.00287329
-0.0019228
-0.00221782
-0.00225578
-0.00155788
-0.00235935
-0.000951172
-0.00226078
-0.00046294
-0.0019847
-0.000129506
-0.00154916
0.000144097
-0.000923699
-4.51882e-05
0.00153234
-0.00141045
0.00176104
-0.00107961
0.00173778
-0.000874968
0.00174048
-0.00068638
0.00176414
-0.000469658
0.00175713
-0.000244833
0.00165925
0.00161395
0.0015884
0.0015742
0.00156849
0.00157058
0.00158381
0.0016212
0.00173724
0.00142611
0.000652263
0.00105228
0.000939158
0.000592071
0.00113807
0.00210031
-0.00103713
0.00843332
-0.00173423
0.00359332
-0.00218733
0.00273891
-0.0025074
0.00205615
-0.00273343
0.00143764
-0.00284637
0.000761306
-0.00278268
-5.85437e-05
-0.00250776
-0.000982364
-0.00207798
-0.00181523
-0.00156932
-0.00243146
-0.0010424
-0.0027827
-0.000546345
-0.00285541
-0.00010502
-0.0027021
0.000269511
-0.00235922
0.000600133
-0.00187978
0.000992023
-0.00131558
0.00173712
-0.000790277
0.00241871
-0.00067157
0.00192437
-0.000916111
0.00180831
-0.000963537
0.00172972
-0.000796378
0.00166856
-0.000625211
0.00165369
-0.000454777
0.00168856
-0.000279693
0.00181875
-0.000130334
0.00191819
-9.95809e-05
0.00200483
-8.67856e-05
0.00207347
-6.8784e-05
0.00210568
-3.23551e-05
0.00207684
2.87024e-05
0.00196128
0.000115415
0.00172717
0.000233971
0.00131952
0.000407499
0.00117433
0.000797473
0.00084636
0.00126714
0.000337969
0.00164647
0.00246345
-0.000728624
0.00953929
-0.00126667
0.00413137
-0.00134171
0.00281396
-0.00137776
0.00209221
-0.00139184
0.00145173
-0.00133323
0.000702701
-0.00112155
-0.000270216
-0.000773365
-0.00133054
-0.000376174
-0.00221242
4.3096e-06
-0.00281194
0.000330404
-0.0031088
0.000591166
-0.00311617
0.000791201
-0.00290214
0.000953586
-0.0025216
0.00111125
-0.00203744
0.00131382
-0.00151815
0.00159342
-0.00106987
0.00176236
-0.0008405
0.00166461
-0.000818356
0.00149203
-0.000790947
0.00136595
-0.000670286
0.00127625
-0.000535508
0.00123199
-0.000410506
0.00124587
-0.00029356
0.00132645
-0.000210906
0.00141023
-0.000183347
0.00149669
-0.000173242
0.00157853
-0.000150612
0.00164116
-9.49715e-05
0.00166117
8.70919e-06
0.0016172
0.000159389
0.00150045
0.000350737
0.00131471
0.000593255
0.00114957
0.000962622
0.000966765
0.00144996
0.000550965
0.00206228
0.000389787
0.00262464
-0.00114221
0.0015318
-0.00160173
0.000459336
-0.00154739
-0.000639881
0.0106075
-0.00101923
0.00451073
-0.000574662
0.0023694
-0.000179243
0.0016968
0.000118189
0.00115431
0.000457702
0.000363198
0.000892403
-0.000704908
0.00128868
-0.00172682
0.00157531
-0.00249904
0.00173555
-0.00297218
0.00178114
-0.00315439
0.0017458
-0.00308084
0.00165487
-0.00281121
0.00154193
-0.00240866
0.00144146
-0.00193697
0.00138136
-0.00145804
0.00135983
-0.00104834
0.00130542
-0.000786087
0.00116011
-0.000673036
0.000970812
-0.000601637
0.000817185
-0.00051665
0.00071477
-0.000433084
0.000666909
-0.000362634
0.000678415
-0.000305055
0.000739122
-0.000271602
0.000821949
-0.000266162
0.00091618
-0.00026746
0.00101608
-0.000250501
0.00111366
-0.000192537
0.00119334
-7.09588e-05
0.00123529
0.000117448
0.00123993
0.000346113
0.00121785
0.000615345
0.00122287
0.000957619
0.00130969
0.00136315
0.00148343
0.00188856
0.00196538
0.0021427
0.00223706
0.00126014
0.00184621
0.000850201
0.000363948
-0.000689566
0.0117717
-0.000581969
0.00440314
0.000588692
0.00119875
0.00141367
0.000871841
0.00205644
0.000511544
0.00270528
-0.000285626
0.00325867
-0.00125829
0.00357077
-0.00203892
0.00363302
-0.00256129
0.00348391
-0.00282308
0.00317768
-0.00284816
0.00277597
-0.00267914
0.00233336
-0.0023686
0.00189805
-0.00197335
0.00150829
-0.0015472
0.00118434
-0.00113408
0.000927804
-0.000791793
0.000710025
-0.000568299
0.000497089
-0.000460091
0.000302324
-0.000406863
0.000153776
-0.000368091
5.9781e-05
-0.000339078
1.80936e-05
-0.000320935
2.56432e-05
-0.000312592
7.10119e-05
-0.000316958
0.00013764
-0.000332777
0.000217088
-0.000346895
0.000309597
-0.000342996
0.000420167
-0.000303095
0.000553143
-0.000203921
0.000687418
-1.68137e-05
0.000812703
0.00022084
0.000946485
0.000481576
0.00113223
0.000771891
0.00142574
0.00106965
0.00190123
0.00141308
0.00263737
0.00140657
0.00323084
0.000666683
0.00330344
0.000777618
0.0037377
0.00268155
0.00962141
0.00340431
0.00368039
0.00386635
0.000736717
0.00455076
0.000187433
0.00530691
-0.000244592
0.00593219
-0.000910899
0.0061878
-0.0015139
0.00607427
-0.0019254
0.00564963
-0.00213666
0.0049961
-0.00216956
0.00420473
-0.0020568
0.00336304
-0.00183745
0.00254115
-0.0015467
0.00179225
-0.00122444
0.00115237
-0.00090732
0.000631501
-0.000613197
0.000234262
-0.000394544
-5.77703e-05
-0.000276256
-0.000277139
-0.000240711
-0.000441918
-0.000242072
-0.000559576
-0.000250421
-0.000636516
-0.000262125
-0.000679755
-0.000277683
-0.000695192
-0.000297142
-0.000691076
-0.00032106
-0.000676728
-0.000347111
-0.000656006
-0.000367603
-0.000626016
-0.000372973
-0.000575982
-0.000353114
-0.000483755
-0.000296135
-0.000316134
-0.000184421
-0.00010768
1.23997e-05
0.000121877
0.000252033
0.000405496
0.000488286
0.00075344
0.000721723
0.00121982
0.000946713
0.00171371
0.000912697
0.0018518
0.000528605
0.000999234
0.0016302
0.0050318
0.0102094
0.0138855
0.0129344
0.00168781
0.0122364
0.000885403
0.0115812
0.000410679
0.0107371
-6.68661e-05
0.00961548
-0.000392287
0.00830833
-0.000618273
0.00690901
-0.00073735
0.00549457
-0.000755138
0.00413664
-0.000698866
0.00289807
-0.00059888
0.00181579
-0.000464403
0.000911398
-0.000320042
0.000190477
-0.000186388
-0.000337613
-8.50937e-05
-0.000684048
-4.80967e-05
-0.00090573
-5.45616e-05
-0.00106107
-8.53607e-05
-0.00118123
-0.000121895
-0.00127634
-0.000155299
-0.00135388
-0.000184576
-0.00142042
-0.00021113
-0.0014817
-0.000235847
-0.0015442
-0.000258547
-0.00161491
-0.00027639
-0.00169975
-0.000282741
-0.00180491
-0.000267807
-0.00193867
-0.00021934
-0.00211205
-0.00012274
-0.00233423
3.7772e-05
-0.00258829
0.000266475
-0.00291673
0.000580486
-0.00342708
0.000998651
-0.00421876
0.00151342
-0.00534715
0.00207512
-0.00692038
0.00248594
-0.0087866
0.00239483
-0.00816117
0.00100478
-0.00280142
0.00439802
0.00348197
0.00364741
0.00163591
0.0041495
-9.15157e-05
0.00418071
-9.812e-05
0.00381809
-2.96767e-05
0.00323864
-3.88169e-05
0.00252687
-2.55667e-05
0.00174001
3.17332e-05
0.000940881
0.000100286
0.000191345
0.000150678
-0.00044525
0.000172213
-0.000928022
0.000162747
-0.00125852
0.000144121
-0.00146217
0.000118577
-0.00159142
8.11638e-05
-0.00168639
4.04195e-05
-0.00177112
-6.12447e-07
-0.00185112
-4.18793e-05
-0.00192925
-7.71636e-05
-0.00201001
-0.000103793
-0.0020977
-0.000123432
-0.00219591
-0.000137623
-0.00230775
-0.000146692
-0.0024351
-0.000149024
-0.0025771
-0.000140722
-0.00272923
-0.000115667
-0.00288215
-6.64038e-05
-0.00301844
1.35557e-05
-0.00312761
0.000146958
-0.00321546
0.000354343
-0.0032952
0.00066024
-0.00338057
0.00108403
-0.00347709
0.00160995
-0.00352718
0.00212523
-0.00344085
0.00239962
-0.00302315
0.00197715
-0.00169192
-0.000326439
-0.0044077
-0.00087195
0.00443489
-0.000297838
0.00106175
-0.000758754
0.000369373
-0.00105284
0.000195965
-0.00125694
0.000174432
-0.00147833
0.000182596
-0.00171181
0.000207934
-0.00192034
0.000240281
-0.00208579
0.000265757
-0.00220777
0.000272675
-0.00228746
0.000251913
-0.00233274
0.000208051
-0.00234608
0.000157478
-0.00233652
0.000109024
-0.00232215
6.68118e-05
-0.0023155
3.37818e-05
-0.00232407
7.97017e-06
-0.00234558
-2.03523e-05
-0.00238087
-4.1857e-05
-0.0024283
-5.63521e-05
-0.00248638
-6.53376e-05
-0.0025538
-7.0187e-05
-0.00262916
-7.13147e-05
-0.00271029
-6.78811e-05
-0.00279321
-5.77871e-05
-0.00287113
-3.77309e-05
-0.00293492
-2.60572e-06
-0.00297028
4.89352e-05
-0.00295043
0.000127115
-0.00284876
0.000252694
-0.00262989
0.000441377
-0.00226552
0.000719687
-0.00175911
0.00110354
-0.00109699
0.00146312
-5.7923e-05
0.00136057
0.00127774
0.000641499
0.00160103
-0.00064971
-0.00271241
-0.00791754
-0.011138
-0.00664714
-0.00555567
-0.00516547
-0.00495245
-0.00476344
-0.00456807
-0.00434865
-0.00409774
-0.00382187
-0.00353927
-0.00327734
-0.00305895
-0.00289071
-0.00277048
-0.00269207
-0.00264639
-0.00262633
-0.00263449
-0.00266414
-0.00270834
-0.00276162
-0.00281989
-0.00287947
-0.00293585
-0.00298238
-0.00300914
-0.00300109
-0.00294184
-0.0028048
-0.00254257
-0.00209209
-0.00136375
-0.000252042
0.00121857
0.00258631
0.00323496
0.00259272
)
;

boundaryField
{
    floor
    {
        type            calculated;
        value           nonuniform List<scalar> 
29
(
0
0
0
0
0
0
0
0
0
0
0
0
0
0
0
0
0
0
0
0
-5.09113e-06
-1.27873e-05
-1.92567e-05
-2.51577e-05
-1.94857e-06
-3.71472e-06
-1.0399e-05
-1.06675e-05
-1.00119e-05
)
;
    }
    ceiling
    {
        type            calculated;
        value           nonuniform List<scalar> 
43
(
-6.00346e-05
-5.7789e-05
-5.59768e-05
-2.97056e-05
-2.08087e-05
-1.7035e-05
-1.45566e-05
-1.27553e-05
-1.14713e-05
-1.06083e-05
-1.00987e-05
-9.90505e-06
-1.00027e-05
-1.0324e-05
-1.07526e-05
-1.11912e-05
-1.15796e-05
-1.1882e-05
-1.20823e-05
-1.21762e-05
-1.21897e-05
-1.21424e-05
-1.20435e-05
-1.18993e-05
-1.17147e-05
-1.14941e-05
-1.12408e-05
-1.09573e-05
-1.06432e-05
-1.02935e-05
-9.91772e-06
-9.51631e-06
-9.09008e-06
-8.63751e-06
-8.15449e-06
-7.47838e-06
-7.15215e-06
-7.14051e-06
-7.45308e-06
-7.16477e-06
6.80482e-06
4.30061e-06
-8.10217e-05
)
;
    }
    sWall
    {
        type            calculated;
        value           uniform -0.000280422;
    }
    nWall
    {
        type            calculated;
        value           nonuniform List<scalar> 6(-5.45321e-05 -6.51195e-05 -7.0298e-05 -8.56277e-05 -9.42484e-05 -0.000112511);
    }
    sideWalls
    {
        type            empty;
        value           nonuniform 0();
    }
    glass1
    {
        type            calculated;
        value           nonuniform List<scalar> 9(-5.99616e-05 -0.000160837 -0.00024529 -0.000316829 -0.000377342 -0.000428291 -0.00047465 -0.000531267 -0.000594803);
    }
    glass2
    {
        type            calculated;
        value           nonuniform List<scalar> 2(-0.000294851 -0.000327939);
    }
    sun
    {
        type            calculated;
        value           uniform 0;
    }
    heatsource1
    {
        type            calculated;
        value           nonuniform List<scalar> 3(2.05054e-07 2.04948e-07 2.04964e-07);
    }
    heatsource2
    {
        type            calculated;
        value           nonuniform List<scalar> 4(5.13437e-08 5.14856e-08 0 0);
    }
    Table_master
    {
        type            calculated;
        value           nonuniform List<scalar> 9(-1.53783e-07 -1.53857e-07 -1.53884e-07 -1.53902e-07 -1.53915e-07 -1.53924e-07 -1.53926e-07 -1.5392e-07 -1.53885e-07);
    }
    Table_slave
    {
        type            calculated;
        value           nonuniform List<scalar> 9(1.53655e-07 1.53669e-07 1.53643e-07 1.53622e-07 1.53615e-07 1.5362e-07 1.53637e-07 1.53686e-07 1.53776e-07);
    }
    inlet
    {
        type            calculated;
        value           uniform -0.00619222;
    }
    outlet
    {
        type            calculated;
        value           nonuniform List<scalar> 2(0.008258 0.00327826);
    }
}


// ************************************************************************* //
