/*--------------------------------*- C++ -*----------------------------------*\
  =========                 |
  \\      /  F ield         | OpenFOAM: The Open Source CFD Toolbox
   \\    /   O peration     | Website:  https://openfoam.org
    \\  /    A nd           | Version:  6
     \\/     M anipulation  |
\*---------------------------------------------------------------------------*/
FoamFile
{
    version     2.0;
    format      ascii;
    class       surfaceScalarField;
    location    "1000";
    object      phi;
}
// * * * * * * * * * * * * * * * * * * * * * * * * * * * * * * * * * * * * * //

dimensions      [1 0 -1 0 0 0 0];

internalField   nonuniform List<scalar> 
852
(
-0.00306584
0.003125
-0.00419105
0.00112517
-0.00501612
0.000825035
-0.00563055
0.000614388
-0.00600278
0.000372201
-0.00610813
0.000105311
-0.00592511
-0.00018305
-0.0054496
-0.000475541
-0.00472135
-0.000728285
-0.00382063
-0.000900759
-0.00284729
-0.000973375
-0.00190434
-0.000942982
-0.00108744
-0.000816927
-0.000458817
-0.000628654
-0.00045682
-0.000854706
0.000858153
-0.000553614
-0.000301116
0.000125851
-0.000679489
0.000698672
-0.000572844
0.00109826
-0.000399615
0.00135862
-0.000260384
0.00150449
-0.000145888
0.00157713
-7.26618e-05
0.00161895
-4.18405e-05
0.00164579
-2.68647e-05
0.00166216
-1.63938e-05
0.00166966
-7.51477e-06
0.00166631
3.32153e-06
0.00164298
2.33182e-05
0.001575
6.79597e-05
0.00142077
0.000154207
0.0011625
0.000258257
0.00082748
0.000334999
0.000832111
-0.00218375
0.00546805
-0.00325503
0.00219642
-0.00409166
0.00166162
-0.00469394
0.00121663
-0.00505957
0.000737805
-0.00517094
0.000216642
-0.00500458
-0.000349443
-0.00456603
-0.000914125
-0.00390811
-0.00138625
-0.00311689
-0.00169201
-0.00228317
-0.00180713
-0.0014885
-0.00173769
-0.00080321
-0.00150225
-0.00029328
-0.00113862
-3.24816e-05
-0.000717648
0.000184568
-0.000217131
0.000184485
0.000281257
0.00058698
0.000747793
-0.000767676
0.00105726
-0.000988977
0.00131803
-0.000833645
0.00152308
-0.000604692
0.00165352
-0.000390847
0.00167769
-0.000170073
0.00168396
-7.89599e-05
0.00169102
-4.89224e-05
0.00169682
-3.26849e-05
0.00170065
-2.02413e-05
0.00170272
-9.61373e-06
0.00170219
3.83474e-06
0.00169501
3.04795e-05
0.00164986
0.000113087
0.00145864
0.000345412
0.00112851
0.000588365
0.000711189
0.000752303
0.00155527
-0.00152182
0.00723362
-0.00243175
0.00310632
-0.00316551
0.00239535
-0.00367549
0.00172657
-0.00398425
0.00104654
-0.00406665
0.00029901
-0.00387893
-0.000537202
-0.00344
-0.00135309
-0.00282598
-0.0020003
-0.00213155
-0.00238648
-0.00143226
-0.00250646
-0.000782854
-0.00238713
-0.000224244
-0.00206089
0.000217473
-0.00158036
0.000497737
-0.000997942
0.00059211
-0.000311534
0.000776565
0.00165197
-0.00105396
0.00189783
-0.00101356
0.00186618
-0.000957359
0.00186443
-0.00083192
0.00189578
-0.000636065
0.00193696
-0.000432043
0.00176702
0.00168819
0.0016394
0.00160684
0.00158674
0.00157725
0.00158122
0.00161184
0.00172506
0.00142207
0.000648382
0.00105499
0.000955427
0.000597589
0.00120968
0.00217107
-0.00105412
0.00860359
-0.00176229
0.00381445
-0.00223944
0.00287247
-0.00256259
0.00204969
-0.00273699
0.0012209
-0.00271167
0.000273661
-0.00243304
-0.000815866
-0.00196957
-0.00181661
-0.00141668
-0.00255322
-0.000858863
-0.00294434
-0.000339431
-0.00302593
0.000119803
-0.0028464
0.000510662
-0.00245179
0.000847681
-0.00191741
0.0011557
-0.00130599
0.00152481
-0.000680677
0.00246661
-0.000165259
0.00282045
-0.000344006
0.0024324
-0.000665935
0.0022702
-0.000851384
0.00211793
-0.000805122
0.00198591
-0.00069992
0.00190329
-0.000553467
0.00184044
-0.000369215
0.00199116
-0.000150892
0.00207326
-8.2275e-05
0.00212964
-5.65472e-05
0.0021633
-3.38347e-05
0.00216066
2.46544e-06
0.00210313
5.73674e-05
0.00196832
0.000134639
0.00172417
0.000243975
0.00131292
0.00041109
0.00116494
0.000796342
0.000848813
0.00127154
0.000376077
0.0016824
0.00257103
-0.000731327
0.00971212
-0.00125693
0.00434002
-0.00134025
0.00295576
-0.00137487
0.00208428
-0.00132312
0.00116912
-0.00105533
5.83303e-06
-0.000609354
-0.00126187
-0.000138042
-0.00228796
0.000282987
-0.00297429
0.000626435
-0.00328783
0.000890306
-0.00328984
0.00108683
-0.00304296
0.0012453
-0.0026103
0.00139201
-0.00206415
0.00155941
-0.00147342
0.00179722
-0.000918517
0.00214932
-0.000517386
0.00225428
-0.000448991
0.00215091
-0.00056259
0.00194713
-0.000647628
0.00176183
-0.000619848
0.00160262
-0.000540725
0.00148467
-0.000435541
0.00142446
-0.000309024
0.0014609
-0.000187346
0.00150491
-0.000126303
0.00154926
-0.000100915
0.0015906
-7.51859e-05
0.00161739
-2.43435e-05
0.0016117
6.30531e-05
0.00155643
0.000189889
0.00143963
0.000360763
0.00126208
0.000588633
0.001109
0.000949404
0.000943838
0.00143669
0.000570522
0.0020557
0.000481104
0.00266043
-0.00109942
0.00158031
-0.00156583
0.000466198
-0.00151299
-0.000629339
0.0107705
-0.000971247
0.0046819
-0.000498552
0.00248303
-3.66081e-05
0.0016223
0.000465402
0.000667086
0.0010627
-0.000591494
0.00158323
-0.00178243
0.00194355
-0.00264832
0.00212896
-0.00315975
0.00218001
-0.00333892
0.00212975
-0.00323962
0.00201442
-0.00292766
0.00187673
-0.00247265
0.00175446
-0.0019419
0.00167672
-0.0013957
0.00166394
-0.000905765
0.00170074
-0.00055421
0.00166441
-0.000412685
0.00152009
-0.000418286
0.00131438
-0.000441939
0.00112168
-0.000427169
0.000964389
-0.000383455
0.000853374
-0.000324542
0.000801186
-0.000256851
0.000811188
-0.000197362
0.000854282
-0.00016941
0.000914031
-0.000160676
0.000983683
-0.000144849
0.00105706
-9.77278e-05
0.0011173
2.79484e-06
0.00114941
0.000157771
0.00115604
0.000354121
0.00114329
0.000601372
0.00116027
0.000932412
0.00126039
0.00133656
0.00145085
0.00186523
0.00194715
0.00216412
0.00222331
0.00130413
0.00182682
0.000862678
0.00037729
-0.0006449
0.0118916
-0.000469705
0.00450667
0.000811105
0.00120219
0.00182786
0.000605512
0.00276464
-0.000269719
0.00355139
-0.00137827
0.00400031
-0.00223139
0.00412265
-0.00277071
0.00397935
-0.00301649
0.00364747
-0.00300708
0.00320012
-0.00279232
0.0027042
-0.00243177
0.00221957
-0.00198805
0.00179206
-0.00151441
0.0014452
-0.00104887
0.0011918
-0.000652377
0.0010173
-0.000379734
0.000861487
-0.000256885
0.000684136
-0.000240953
0.000497583
-0.000255403
0.000331129
-0.000260731
0.000200952
-0.000253292
0.000114895
-0.000238498
7.92167e-05
-0.000221185
9.19418e-05
-0.000210098
0.00013656
-0.000214038
0.000199934
-0.00022406
0.000278714
-0.000223638
0.000375469
-0.000194491
0.000493102
-0.000114846
0.000616334
3.45309e-05
0.000738752
0.000231694
0.000875867
0.000464248
0.00106558
0.000742689
0.00136212
0.00104001
0.00183594
0.00139139
0.00257527
0.00142478
0.00316733
0.00071206
0.00323342
0.000796576
0.00367942
0.00281751
0.00960755
0.00362919
0.00369495
0.00434356
0.000487787
0.00547248
-0.000523436
0.00638745
-0.00118472
0.00676983
-0.00176069
0.00669501
-0.00215662
0.00625097
-0.00232672
0.00553902
-0.00230458
0.00466713
-0.00213524
0.00373443
-0.00185966
0.00282398
-0.00152134
0.00200034
-0.00116444
0.00130671
-0.000820793
0.000753013
-0.000495188
0.000353098
-0.000252474
8.73785e-05
-0.000114027
-9.97276e-05
-6.97922e-05
-0.000256591
-8.4103e-05
-0.000397003
-0.000115005
-0.000515796
-0.000141951
-0.000607037
-0.000162063
-0.00066766
-0.000177885
-0.000696551
-0.000192303
-0.000697521
-0.000209137
-0.000681233
-0.000230333
-0.000655078
-0.000250222
-0.000618748
-0.000259974
-0.000563119
-0.000250126
-0.000468758
-0.000209214
-0.000317226
-0.000117009
-0.000130199
4.46603e-05
8.80026e-05
0.000246038
0.000364574
0.000466109
0.000709449
0.00069513
0.00117899
0.000921839
0.00169976
0.000903996
0.00187554
0.000536269
0.00104643
0.00162568
0.00501194
0.0101979
0.0138885
0.0129588
0.00141749
0.0123449
9.04022e-05
0.0115055
-0.00034531
0.0103765
-0.000631785
0.0089902
-0.000770377
0.00746325
-0.000799821
0.00590347
-0.000744849
0.00440299
-0.000634792
0.00303398
-0.000490665
0.00184634
-0.000333719
0.000864291
-0.000182397
8.94869e-05
-4.59962e-05
-0.000457085
5.13808e-05
-0.000785496
7.59294e-05
-0.000970156
7.06243e-05
-0.00108632
4.63582e-05
-0.00118166
1.12289e-05
-0.00127107
-2.56043e-05
-0.00135294
-6.00844e-05
-0.00142475
-9.02606e-05
-0.00148557
-0.000117079
-0.00153694
-0.000140931
-0.00158397
-0.000162116
-0.00163516
-0.000179147
-0.00169886
-0.000186526
-0.00178323
-0.000175616
-0.00189836
-0.000135
-0.0020574
-5.01775e-05
-0.00226184
8.74242e-05
-0.00250561
0.000288422
-0.00283384
0.000574254
-0.00333308
0.000965346
-0.00409766
0.0014597
-0.00518846
0.00201263
-0.00671805
0.00243358
-0.00855181
0.00237003
-0.00797325
0.00104711
-0.00264403
0.00438982
0.00328545
0.00333146
0.00114868
0.00355894
-0.00057283
0.00341837
-0.000491223
0.00288705
-0.000239053
0.00214057
-5.33335e-05
0.00129441
0.000101312
0.0004462
0.000213427
-0.000315328
0.000270874
-0.000924601
0.000275555
-0.00136281
0.000255806
-0.00164082
0.000232011
-0.00178933
0.000199889
-0.001872
0.000158595
-0.00192231
0.000120924
-0.00196382
8.78564e-05
-0.00201005
5.74543e-05
-0.00206548
2.98219e-05
-0.00212999
4.41762e-06
-0.00220074
-1.95159e-05
-0.00227515
-4.26689e-05
-0.00235436
-6.17282e-05
-0.00244139
-7.50942e-05
-0.00253916
-8.13798e-05
-0.00264843
-7.72658e-05
-0.00276662
-5.74325e-05
-0.00288593
-1.56887e-05
-0.00299464
5.85245e-05
-0.00308789
0.000180662
-0.00317042
0.000370948
-0.00325002
0.000653845
-0.00333631
0.00105164
-0.00343026
0.00155364
-0.00347654
0.00205891
-0.00339634
0.00235337
-0.00300745
0.00198113
-0.00168854
-0.000271817
-0.00424959
-0.000708506
0.00408007
-0.000371164
0.000811336
-0.00113758
0.000193592
-0.00173536
0.000106572
-0.00214468
0.000170278
-0.00243541
0.000237412
-0.00262608
0.000291991
-0.00274403
0.000331388
-0.00281025
0.000337093
-0.00283999
0.000305295
-0.00283942
0.000255239
-0.00281159
0.000204176
-0.00276887
0.000157167
-0.00272777
0.000117485
-0.00269472
8.7871e-05
-0.00267299
6.61224e-05
-0.00266444
4.89029e-05
-0.00266835
3.37262e-05
-0.00268308
1.91476e-05
-0.00270657
3.96499e-06
-0.00273911
-1.01308e-05
-0.00277966
-2.11856e-05
-0.00282677
-2.79817e-05
-0.00287846
-2.96978e-05
-0.00293104
-2.46901e-05
-0.00297851
-9.97295e-06
-0.0030121
1.78952e-05
-0.00301721
6.36288e-05
-0.00297585
0.000139295
-0.00286189
0.00025699
-0.00264152
0.000433466
-0.00228545
0.000695557
-0.00178961
0.00105779
-0.00113219
0.00140149
-0.000108544
0.00132971
0.00123806
0.000634523
0.00160124
-0.000635002
-0.00255701
-0.00777509
-0.0110262
-0.00689237
-0.00605486
-0.00584394
-0.00572376
-0.0055422
-0.00529514
-0.00499466
-0.00465558
-0.00431127
-0.00399898
-0.00373677
-0.00352554
-0.0033612
-0.00323641
-0.00314111
-0.00306745
-0.00301093
-0.00296955
-0.00294275
-0.00293118
-0.00293378
-0.00294754
-0.00296822
-0.00299076
-0.00300844
-0.00301157
-0.00298702
-0.00291693
-0.00277141
-0.00250842
-0.00206922
-0.00136822
-0.00030531
0.00110082
0.0024349
0.0030737
0.00244311
)
;

boundaryField
{
    floor
    {
        type            calculated;
        value           nonuniform List<scalar> 
29
(
0
0
0
0
0
0
0
0
0
0
0
0
0
0
0
0
0
0
0
0
-4.64738e-06
-1.19831e-05
-1.82308e-05
-2.38918e-05
-2.02529e-06
-3.47093e-06
-1.01076e-05
-1.10538e-05
-9.86296e-06
)
;
    }
    ceiling
    {
        type            calculated;
        value           nonuniform List<scalar> 
43
(
-5.77428e-05
-5.5552e-05
-5.37884e-05
-2.61515e-05
-1.7319e-05
-1.35923e-05
-1.12817e-05
-9.64319e-06
-8.48478e-06
-7.69145e-06
-7.20912e-06
-6.99874e-06
-6.97899e-06
-7.05714e-06
-7.17442e-06
-7.30351e-06
-7.43031e-06
-7.54143e-06
-7.6217e-06
-7.65967e-06
-7.65321e-06
-7.60758e-06
-7.52957e-06
-7.42765e-06
-7.30641e-06
-7.16825e-06
-7.01454e-06
-6.84569e-06
-6.66057e-06
-6.45843e-06
-6.23879e-06
-5.99985e-06
-5.73867e-06
-5.45057e-06
-5.12722e-06
-4.65616e-06
-4.37114e-06
-4.2861e-06
-4.41444e-06
-3.87147e-06
6.73718e-06
4.26745e-06
-8.61199e-05
)
;
    }
    sWall
    {
        type            calculated;
        value           uniform -0.000277966;
    }
    nWall
    {
        type            calculated;
        value           nonuniform List<scalar> 6(-5.30622e-05 -6.34644e-05 -6.87259e-05 -8.29821e-05 -9.13466e-05 -0.000110038);
    }
    sideWalls
    {
        type            empty;
        value           nonuniform 0();
    }
    glass1
    {
        type            calculated;
        value           nonuniform List<scalar> 9(-5.91872e-05 -0.000159331 -0.000243785 -0.000315886 -0.000377235 -0.000429024 -0.000476325 -0.000533438 -0.000597099);
    }
    glass2
    {
        type            calculated;
        value           nonuniform List<scalar> 2(-0.000286097 -0.000317285);
    }
    sun
    {
        type            calculated;
        value           uniform 0;
    }
    heatsource1
    {
        type            calculated;
        value           nonuniform List<scalar> 3(2.04807e-07 2.04726e-07 2.04746e-07);
    }
    heatsource2
    {
        type            calculated;
        value           nonuniform List<scalar> 4(5.1403e-08 5.14757e-08 0 0);
    }
    Table_master
    {
        type            calculated;
        value           nonuniform List<scalar> 9(-1.53631e-07 -1.53733e-07 -1.53767e-07 -1.53789e-07 -1.53803e-07 -1.53812e-07 -1.53815e-07 -1.53805e-07 -1.53766e-07);
    }
    Table_slave
    {
        type            calculated;
        value           nonuniform List<scalar> 9(1.53486e-07 1.53511e-07 1.53491e-07 1.53478e-07 1.53478e-07 1.5348e-07 1.53503e-07 1.53554e-07 1.53644e-07);
    }
    inlet
    {
        type            calculated;
        value           uniform -0.00625781;
    }
    outlet
    {
        type            calculated;
        value           nonuniform List<scalar> 2(0.00811082 0.00330672);
    }
}


// ************************************************************************* //
