// -*- C++ -*-
// File generated by PyFoam - sorry for the ugliness

FoamFile
{
 version 2.0;
 format ascii;
 class volScalarField;
 location "1000";
 object T;
}

dimensions [ 0 0 0 1 0 0 0 ];

internalField nonuniform List<scalar> 459
(
  302.75
  302.472
  302.455
  302.449
  302.443
  302.437
  302.431
  302.423
  302.412
  302.401
  302.391
  302.385
  302.385
  302.392
  302.409
  302.576
  302.544
  302.53
  302.534
  302.542
  302.55
  302.558
  302.566
  302.574
  302.582
  302.59
  302.598
  302.606
  302.613
  302.621
  302.629
  302.638
  302.649
  302.677
  302.932
  302.513
  302.483
  302.481
  302.48
  302.477
  302.47
  302.457
  302.436
  302.41
  302.386
  302.369
  302.361
  302.364
  302.372
  302.381
  302.401
  302.58
  302.515
  302.504
  302.509
  302.518
  302.527
  302.534
  302.54
  302.546
  302.551
  302.556
  302.562
  302.567
  302.573
  302.579
  302.588
  302.599
  302.615
  302.659
  303.124
  302.567
  302.519
  302.525
  302.534
  302.539
  302.537
  302.52
  302.483
  302.436
  302.392
  302.361
  302.347
  302.348
  302.358
  302.368
  302.381
  302.487
  302.477
  302.484
  302.5
  302.518
  302.533
  302.536
  302.54
  302.545
  302.549
  302.553
  302.558
  302.562
  302.566
  302.571
  302.578
  302.588
  302.604
  302.651
  303.319
  302.635
  302.56
  302.572
  302.597
  302.619
  302.628
  302.602
  302.541
  302.466
  302.399
  302.353
  302.333
  302.335
  302.348
  302.363
  302.377
  302.394
  302.417
  302.449
  302.482
  302.514
  302.543
  302.565
  302.583
  302.598
  302.612
  302.623
  302.633
  302.641
  302.649
  302.655
  302.658
  302.634
  302.615
  302.612
  302.652
  303.51
  302.722
  302.611
  302.621
  302.661
  302.703
  302.724
  302.681
  302.587
  302.482
  302.396
  302.34
  302.318
  302.322
  302.342
  302.368
  302.393
  302.42
  302.453
  302.491
  302.53
  302.566
  302.598
  302.624
  302.646
  302.664
  302.679
  302.69
  302.698
  302.701
  302.702
  302.699
  302.692
  302.671
  302.644
  302.626
  302.649
  302.747
  302.796
  302.801
  303.683
  302.836
  302.699
  302.691
  302.739
  302.8
  302.794
  302.716
  302.596
  302.471
  302.372
  302.313
  302.295
  302.31
  302.346
  302.387
  302.428
  302.469
  302.511
  302.555
  302.597
  302.635
  302.666
  302.691
  302.711
  302.726
  302.738
  302.746
  302.75
  302.748
  302.743
  302.734
  302.721
  302.7
  302.671
  302.645
  302.649
  302.693
  302.714
  302.756
  303.847
  303.017
  302.885
  302.868
  302.897
  302.905
  302.829
  302.693
  302.537
  302.397
  302.302
  302.259
  302.265
  302.305
  302.366
  302.431
  302.49
  302.544
  302.593
  302.638
  302.678
  302.711
  302.737
  302.757
  302.772
  302.783
  302.79
  302.794
  302.793
  302.788
  302.777
  302.763
  302.747
  302.725
  302.698
  302.671
  302.662
  302.677
  302.692
  302.726
  304.079
  303.464
  303.321
  303.252
  303.155
  302.981
  302.759
  302.535
  302.349
  302.226
  302.175
  302.186
  302.243
  302.328
  302.425
  302.514
  302.586
  302.644
  302.69
  302.727
  302.758
  302.782
  302.8
  302.813
  302.822
  302.828
  302.83
  302.83
  302.827
  302.82
  302.809
  302.794
  302.778
  302.758
  302.737
  302.716
  302.712
  302.732
  302.76
  302.911
  304.415
  304.122
  303.83
  303.499
  303.019
  302.561
  302.215
  302.002
  301.916
  301.933
  302.024
  302.152
  302.287
  302.422
  302.555
  302.645
  302.704
  302.746
  302.778
  302.804
  302.825
  302.84
  302.851
  302.858
  302.861
  302.863
  302.862
  302.86
  302.856
  302.852
  302.85
  302.85
  302.852
  302.861
  302.88
  302.91
  302.952
  302.993
  303.018
  303.081
  293.214
  294.837
  297.073
  298.692
  299.838
  300.681
  301.31
  301.779
  302.134
  302.376
  302.526
  302.634
  302.712
  302.765
  302.802
  302.829
  302.849
  302.865
  302.876
  302.884
  302.889
  302.892
  302.893
  302.894
  302.894
  302.894
  302.894
  302.895
  302.896
  302.899
  302.904
  302.915
  302.932
  302.957
  302.987
  303.017
  303.039
  303.063
  294.438
  296.961
  299.242
  300.418
  301.155
  301.66
  302.017
  302.283
  302.482
  302.622
  302.715
  302.778
  302.822
  302.852
  302.873
  302.888
  302.899
  302.907
  302.912
  302.915
  302.917
  302.919
  302.92
  302.92
  302.921
  302.921
  302.922
  302.923
  302.924
  302.926
  302.931
  302.938
  302.95
  302.967
  302.987
  303.011
  303.01
  303.043
  298.428
  298.352
  298.347
  300.713
  301.625
  302.013
  302.253
  302.434
  302.575
  302.683
  302.765
  302.825
  302.865
  302.893
  302.912
  302.924
  302.933
  302.939
  302.943
  302.946
  302.947
  302.947
  302.947
  302.947
  302.947
  302.946
  302.946
  302.945
  302.945
  302.945
  302.945
  302.945
  302.947
  302.95
  302.955
  302.968
  302.979
  302.988
  302.992
  303.032
)
;

boundaryField
{
  floor
  {
    type wallHeatTransfer;
    Tinf uniform 305.2;
    alphaWall uniform 0.24;
    value nonuniform List<scalar> 29
(
  302.678
  303.038
  302.956
  302.909
  302.91
  302.925
  302.944
  302.969
  302.996
  303.023
  303.05
  303.075
  303.1
  303.124
  303.147
  303.17
  303.193
  303.218
  303.241
  303.297
  303.297
  303.192
  303.139
  303.109
  302.678
  303.038
  303.029
  302.782
  302.617
)
;
  }
  ceiling
  {
    type wallHeatTransfer;
    Tinf uniform 303.2;
    alphaWall uniform 0.24;
    value nonuniform List<scalar> 43
(
  298.741
  298.655
  298.64
  300.855
  301.719
  302.086
  302.313
  302.485
  302.619
  302.723
  302.802
  302.86
  302.901
  302.929
  302.948
  302.962
  302.971
  302.978
  302.982
  302.985
  302.986
  302.986
  302.986
  302.985
  302.984
  302.983
  302.982
  302.98
  302.979
  302.977
  302.976
  302.975
  302.976
  302.977
  302.981
  302.99
  303
  303.008
  303.013
  303.05
  304.36
  304.085
  294.96
)
;
  }
  sWall
  {
    type wallHeatTransfer;
    Tinf uniform 315.2;
    alphaWall uniform 0.36;
    value uniform 300.031;
  }
  nWall
  {
    type wallHeatTransfer;
    Tinf uniform 307.2;
    alphaWall uniform 0.36;
    value nonuniform List<scalar> 6
(
  303.591
  303.529
  303.437
  303.652
  303.63
  303.675
)
;
  }
  sideWalls
  {
    type empty;
  }
  glass1
  {
    type wallHeatTransfer;
    Tinf uniform 315.2;
    alphaWall uniform 4.3;
    value nonuniform List<scalar> 9
(
  311.103
  310.438
  310.025
  309.715
  309.458
  309.225
  309.062
  309.149
  309.399
)
;
  }
  glass2
  {
    type wallHeatTransfer;
    Tinf uniform 307.2;
    alphaWall uniform 4.3;
    value nonuniform List<scalar> 2
(
  305.52
  305.652
)
;
  }
  sun
  {
    type wallHeatTransfer;
    Tinf uniform 305.2;
    alphaWall uniform 0.24;
    value nonuniform List<scalar> 14
(
  302.996
  302.726
  302.707
  302.691
  302.678
  302.665
  302.652
  302.639
  302.626
  302.615
  302.608
  302.609
  302.619
  302.641
)
;
  }
  heatsource1
  {
    type fixedGradient;
    gradient uniform 0;
  }
  heatsource2
  {
    type fixedGradient;
    gradient uniform 0;
  }
  Table_master
  {
    type zeroGradient;
  }
  Table_slave
  {
    type zeroGradient;
  }
  inlet
  {
    type fixedValue;
    value uniform 290.15;
  }
  outlet
  {
    type zeroGradient;
  }
} 	// ************************************************************************* //

