// -*- C++ -*-
// File generated by PyFoam - sorry for the ugliness

FoamFile
{
 version 2.0;
 format ascii;
 class volVectorField;
 location "1000";
 object U;
}

dimensions [ 0 1 -1 0 0 0 0 ];

internalField nonuniform List<vector> 459
(
  (0.0297663 0.0891015 0)
  (-0.173568 0.0275139 0)
  (-0.200707 0.0181334 0)
  (-0.231901 0.0115586 0)
  (-0.253144 0.00447603 0)
  (-0.263361 -0.00290599 0)
  (-0.260927 -0.0105806 0)
  (-0.245687 -0.0184402 0)
  (-0.218888 -0.025477 0)
  (-0.183249 -0.0305096 0)
  (-0.14272 -0.0327869 0)
  (-0.101466 -0.031997 0)
  (-0.0633794 -0.028236 0)
  (-0.0333838 -0.0224847 0)
  (-0.0264811 -0.0167371 0)
  (-0.0081471 0.00974891 0)
  (-0.0312853 -0.018795 0)
  (-0.0064921 -0.0300867 0)
  (0.0198505 -0.0234019 0)
  (0.0380507 -0.0162115 0)
  (0.05274 -0.0106115 0)
  (0.0619987 -0.00631268 0)
  (0.0668643 -0.00404192 0)
  (0.0691363 -0.00309492 0)
  (0.0703412 -0.00265047 0)
  (0.0711413 -0.00235294 0)
  (0.0716386 -0.00210039 0)
  (0.0717533 -0.00180484 0)
  (0.0712529 -0.00126926 0)
  (0.0695141 -8.38651e-05 0)
  (0.0652172 0.00232891 0)
  (0.0568945 0.00502444 0)
  (0.0479745 0.00764033 0)
  (-0.00990087 0.0237011 0)
  (0.204358 0.181843 0)
  (-0.159096 0.0722294 0)
  (-0.159995 0.0543109 0)
  (-0.191761 0.0405005 0)
  (-0.21261 0.0250681 0)
  (-0.22297 0.00804393 0)
  (-0.221088 -0.0105658 0)
  (-0.206974 -0.0293629 0)
  (-0.182493 -0.0454838 0)
  (-0.150723 -0.0564121 0)
  (-0.11545 -0.0610089 0)
  (-0.0802567 -0.0591932 0)
  (-0.0482566 -0.0514502 0)
  (-0.0222504 -0.0391306 0)
  (-0.00648108 -0.0255148 0)
  (0.0068907 -0.00803875 0)
  (0.00274598 0.0181031 0)
  (0.0632602 0.0400298 0)
  (0.0282724 -0.0215856 0)
  (0.0380487 -0.0360837 0)
  (0.0507505 -0.0320503 0)
  (0.0611068 -0.0231224 0)
  (0.0686627 -0.0144714 0)
  (0.071972 -0.00628448 0)
  (0.07263 -0.00165043 0)
  (0.072585 0.00025699 0)
  (0.0727121 0.00108672 0)
  (0.0729451 0.00158766 0)
  (0.0731138 0.00200602 0)
  (0.0731742 0.0025545 0)
  (0.0730561 0.00359632 0)
  (0.0721882 0.00612331 0)
  (0.0679486 0.0129976 0)
  (0.0573083 0.0190895 0)
  (0.0506619 0.0238798 0)
  (-0.0492199 0.0508184 0)
  (0.364388 0.271383 0)
  (-0.172446 0.113762 0)
  (-0.119278 0.0870354 0)
  (-0.149307 0.063003 0)
  (-0.167467 0.0377301 0)
  (-0.176398 0.010184 0)
  (-0.173105 -0.0197378 0)
  (-0.15812 -0.0492557 0)
  (-0.134463 -0.0734285 0)
  (-0.105892 -0.0885899 0)
  (-0.0758203 -0.0938369 0)
  (-0.0468744 -0.0897964 0)
  (-0.0210216 -0.0775837 0)
  (0.000695096 -0.0587231 0)
  (0.0158491 -0.0360517 0)
  (0.0259024 -0.0100199 0)
  (0.0288939 0.0290222 0)
  (0.119449 -0.030669 0)
  (0.0821217 -0.04349 0)
  (0.0768916 -0.0443531 0)
  (0.0789083 -0.0380578 0)
  (0.0806723 -0.0287382 0)
  (0.0822065 -0.0204116 0)
  (0.0805806 -0.0160721 0)
  (0.0750911 -0.0110989 0)
  (0.071097 -0.00836644 0)
  (0.0692304 -0.00678453 0)
  (0.0683621 -0.00575721 0)
  (0.0678634 -0.00503321 0)
  (0.0677329 -0.0043882 0)
  (0.0685103 -0.00338071 0)
  (0.071529 0.000129817 0)
  (0.0693568 0.0185766 0)
  (0.0550187 0.0319344 0)
  (0.0560664 0.0417145 0)
  (-0.0846499 0.0787433 0)
  (0.508871 0.343026 0)
  (-0.20411 0.149965 0)
  (-0.077304 0.114465 0)
  (-0.104501 0.0817212 0)
  (-0.116875 0.0487092 0)
  (-0.121135 0.0117476 0)
  (-0.112041 -0.0296164 0)
  (-0.0941864 -0.0693158 0)
  (-0.0713848 -0.0997891 0)
  (-0.0476014 -0.11712 0)
  (-0.0248263 -0.121729 0)
  (-0.00414534 -0.115147 0)
  (0.0139544 -0.098925 0)
  (0.0290875 -0.0766427 0)
  (0.0425876 -0.0504633 0)
  (0.0578729 -0.021851 0)
  (0.0802662 0.0110255 0)
  (0.114273 0.0193895 0)
  (0.118957 -0.0252118 0)
  (0.103364 -0.0383104 0)
  (0.0930863 -0.0381044 0)
  (0.0872039 -0.0334051 0)
  (0.0828928 -0.0261369 0)
  (0.0800905 -0.0168912 0)
  (0.0814553 -0.00990792 0)
  (0.0865643 -0.00712944 0)
  (0.0905052 -0.0055289 0)
  (0.0925911 -0.00436928 0)
  (0.0933032 -0.00314531 0)
  (0.0921153 -0.00154633 0)
  (0.0882635 0.000612344 0)
  (0.0805069 0.00368235 0)
  (0.0657977 0.00829435 0)
  (0.0535883 0.0299206 0)
  (0.0415548 0.0481825 0)
  (0.0590995 0.0629199 0)
  (-0.123507 0.102942 0)
  (0.633456 0.398155 0)
  (-0.244132 0.179007 0)
  (-0.0368871 0.129693 0)
  (-0.0579884 0.0919114 0)
  (-0.0616859 0.0539402 0)
  (-0.0563851 0.0088419 0)
  (-0.0342843 -0.0440765 0)
  (-0.0135445 -0.0899066 0)
  (0.00596979 -0.122164 0)
  (0.0214655 -0.137484 0)
  (0.0336344 -0.139015 0)
  (0.0428711 -0.129583 0)
  (0.0499687 -0.111709 0)
  (0.0560788 -0.0883011 0)
  (0.0624255 -0.0622817 0)
  (0.0709882 -0.0370151 0)
  (0.0845605 -0.019121 0)
  (0.0958798 -0.021456 0)
  (0.096579 -0.031787 0)
  (0.0890785 -0.0338422 0)
  (0.0796244 -0.0311732 0)
  (0.0717604 -0.0268144 0)
  (0.065746 -0.0212576 0)
  (0.0619823 -0.0146402 0)
  (0.0613357 -0.00765132 0)
  (0.0633647 -0.00405217 0)
  (0.0656045 -0.00250956 0)
  (0.0675061 -0.00127748 0)
  (0.0690357 0.000735432 0)
  (0.0697198 0.00390621 0)
  (0.0686156 0.00838273 0)
  (0.06522 0.0144685 0)
  (0.0587523 0.0229865 0)
  (0.0512735 0.0394588 0)
  (0.0405494 0.0596349 0)
  (0.0669384 0.0820533 0)
  (-0.029132 0.115757 0)
  (0.0470475 0.0306368 0)
  (-0.0685072 -0.0381248 0)
  (-0.283368 -0.0613019 0)
  (0.723982 0.443585 0)
  (-0.283516 0.197685 0)
  (-0.00608338 0.123862 0)
  (-0.00849256 0.0896394 0)
  (0.00240933 0.0475871 0)
  (0.0329084 -0.00909353 0)
  (0.0604198 -0.0653631 0)
  (0.0795286 -0.107667 0)
  (0.0905363 -0.134086 0)
  (0.0945753 -0.145289 0)
  (0.0935664 -0.143516 0)
  (0.0891667 -0.131576 0)
  (0.0830845 -0.112452 0)
  (0.0770704 -0.0891728 0)
  (0.0725305 -0.0645584 0)
  (0.0706966 -0.0418895 0)
  (0.0721574 -0.0254867 0)
  (0.0730829 -0.0205466 0)
  (0.069332 -0.0221612 0)
  (0.0613315 -0.0233621 0)
  (0.0521863 -0.0221864 0)
  (0.0443465 -0.0195423 0)
  (0.0384858 -0.016015 0)
  (0.0349938 -0.011874 0)
  (0.0341452 -0.0079532 0)
  (0.0354978 -0.00610381 0)
  (0.0378382 -0.00542415 0)
  (0.0406371 -0.00452193 0)
  (0.043654 -0.0023305 0)
  (0.0469047 0.00188715 0)
  (0.0490305 0.00809351 0)
  (0.0499632 0.0162397 0)
  (0.0498182 0.0268244 0)
  (0.0500508 0.0419797 0)
  (0.0481857 0.0614913 0)
  (0.0748112 0.0869015 0)
  (0.0494303 0.107835 0)
  (0.0964138 0.0717879 0)
  (0.121131 0.0459244 0)
  (-0.13799 -0.0104142 0)
  (0.783011 0.485012 0)
  (-0.30161 0.181178 0)
  (0.0266088 0.0659096 0)
  (0.0616694 0.0510765 0)
  (0.0961023 0.0149647 0)
  (0.140533 -0.0414745 0)
  (0.167451 -0.0880252 0)
  (0.178989 -0.119371 0)
  (0.177382 -0.136084 0)
  (0.165796 -0.13988 0)
  (0.147771 -0.133093 0)
  (0.126509 -0.118477 0)
  (0.104765 -0.098927 0)
  (0.0848135 -0.0770515 0)
  (0.0680657 -0.0549585 0)
  (0.0554259 -0.0354229 0)
  (0.0468993 -0.0214563 0)
  (0.0404332 -0.0152403 0)
  (0.0334373 -0.0143805 0)
  (0.025406 -0.0148075 0)
  (0.0175292 -0.014421 0)
  (0.0109926 -0.013271 0)
  (0.00628588 -0.0116929 0)
  (0.00369229 -0.00991221 0)
  (0.00330896 -0.00848288 0)
  (0.00468807 -0.00814314 0)
  (0.00705659 -0.008307 0)
  (0.010059 -0.00801056 0)
  (0.0136676 -0.0063347 0)
  (0.0180441 -0.00229286 0)
  (0.0240539 0.00468405 0)
  (0.0293005 0.0134276 0)
  (0.0346932 0.0239476 0)
  (0.04191 0.0372474 0)
  (0.0493379 0.0531087 0)
  (0.0742245 0.0738244 0)
  (0.0868336 0.0827437 0)
  (0.123206 0.0548036 0)
  (0.16577 0.0439143 0)
  (-0.0343873 0.096227 0)
  (0.891274 0.482975 0)
  (-0.0515496 0.15854 0)
  (0.122726 -0.026403 0)
  (0.219499 -0.0676553 0)
  (0.267416 -0.0839512 0)
  (0.289658 -0.10059 0)
  (0.294264 -0.114467 0)
  (0.282097 -0.121943 0)
  (0.255895 -0.122269 0)
  (0.220281 -0.115931 0)
  (0.180143 -0.103988 0)
  (0.139625 -0.0880667 0)
  (0.101887 -0.0701305 0)
  (0.0691469 -0.0518521 0)
  (0.0421905 -0.0342336 0)
  (0.0221037 -0.0196367 0)
  (0.00840759 -0.0102365 0)
  (-0.000729696 -0.00647491 0)
  (-0.00780513 -0.00642393 0)
  (-0.0142036 -0.00737443 0)
  (-0.0198837 -0.0080531 0)
  (-0.024456 -0.00837552 0)
  (-0.0277328 -0.0085155 0)
  (-0.0296143 -0.00864696 0)
  (-0.0301605 -0.00902757 0)
  (-0.0297437 -0.00982416 0)
  (-0.0288163 -0.010731 0)
  (-0.0275406 -0.0112735 0)
  (-0.0257751 -0.0109552 0)
  (-0.0230715 -0.0091878 0)
  (-0.0180447 -0.00522101 0)
  (-0.0090736 0.00129018 0)
  (-0.00111704 0.00911564 0)
  (0.00986469 0.0174229 0)
  (0.0214011 0.0252536 0)
  (0.0429493 0.0344048 0)
  (0.0626117 0.0275311 0)
  (0.0831485 -0.00449993 0)
  (0.145151 0.0427749 0)
  (-0.445085 0.217947 0)
  (1.04382 0.426594 0)
  (0.494396 0.278502 0)
  (0.514681 0.170407 0)
  (0.549831 0.0868879 0)
  (0.52666 0.0290872 0)
  (0.475753 -0.0140021 0)
  (0.417134 -0.0431913 0)
  (0.353782 -0.0590786 0)
  (0.286916 -0.0639914 0)
  (0.220198 -0.0609485 0)
  (0.157646 -0.0525863 0)
  (0.102276 -0.0412337 0)
  (0.055777 -0.029033 0)
  (0.018511 -0.0174174 0)
  (-0.0113157 -0.00707207 0)
  (-0.0286774 -0.00160658 0)
  (-0.0386696 0.000458482 0)
  (-0.0445365 0.000375296 0)
  (-0.0487963 -0.000835917 0)
  (-0.0527711 -0.00231569 0)
  (-0.0565185 -0.00369358 0)
  (-0.059853 -0.00493738 0)
  (-0.0626973 -0.00610698 0)
  (-0.0650574 -0.00724405 0)
  (-0.0670904 -0.00838748 0)
  (-0.0691269 -0.009494 0)
  (-0.0715433 -0.0103185 0)
  (-0.0746667 -0.0104806 0)
  (-0.0788535 -0.00948429 0)
  (-0.0846276 -0.00668114 0)
  (-0.092729 -0.00132668 0)
  (-0.102314 0.00696217 0)
  (-0.113197 0.0181573 0)
  (-0.130049 0.032746 0)
  (-0.15645 0.0506088 0)
  (-0.194771 0.0698074 0)
  (-0.249179 0.0851633 0)
  (-0.311482 0.0937714 0)
  (-0.383279 0.0962339 0)
  (-0.652476 0.0929032 0)
  (-0.163805 -0.026638 0)
  (0.0953981 -0.0496529 0)
  (0.173868 -0.0637942 0)
  (0.158809 -0.0527109 0)
  (0.136377 -0.0370907 0)
  (0.109371 -0.0233478 0)
  (0.075155 -0.0119569 0)
  (0.0378762 -0.00333266 0)
  (0.00147828 0.00262216 0)
  (-0.0290523 0.00589501 0)
  (-0.0510046 0.00716473 0)
  (-0.066201 0.00729418 0)
  (-0.07489 0.00612738 0)
  (-0.0792936 0.00397277 0)
  (-0.0817858 0.00173144 0)
  (-0.083552 -0.000561306 0)
  (-0.0853919 -0.00289444 0)
  (-0.0875504 -0.00509459 0)
  (-0.0901313 -0.00699348 0)
  (-0.0930934 -0.00842224 0)
  (-0.0962242 -0.00944702 0)
  (-0.0994975 -0.0101071 0)
  (-0.103037 -0.0104186 0)
  (-0.107001 -0.0103168 0)
  (-0.111485 -0.00958997 0)
  (-0.11645 -0.00789444 0)
  (-0.121692 -0.00480027 0)
  (-0.126836 0.00016422 0)
  (-0.131146 0.00722335 0)
  (-0.134643 0.0170405 0)
  (-0.137528 0.0305991 0)
  (-0.14025 0.0484753 0)
  (-0.143768 0.0698299 0)
  (-0.148622 0.0902932 0)
  (-0.151498 0.0985057 0)
  (-0.134279 0.0721601 0)
  (-0.0861013 -0.0299483 0)
  (-0.287905 -0.220059 0)
  (0.0531171 0.19129 0)
  (0.00909999 0.0563741 0)
  (-0.0343737 0.00680319 0)
  (-0.0623123 0.00743798 0)
  (-0.0837058 0.0147104 0)
  (-0.09899 0.0201933 0)
  (-0.10868 0.0243526 0)
  (-0.115201 0.0272562 0)
  (-0.119633 0.0284307 0)
  (-0.122072 0.0279491 0)
  (-0.122701 0.0268738 0)
  (-0.121932 0.0260338 0)
  (-0.120174 0.0254714 0)
  (-0.118214 0.0252884 0)
  (-0.116542 0.0257629 0)
  (-0.115333 0.0267174 0)
  (-0.114693 0.0277817 0)
  (-0.11462 0.0285552 0)
  (-0.115048 0.0286879 0)
  (-0.115848 0.0279297 0)
  (-0.117058 0.0264096 0)
  (-0.118637 0.0245922 0)
  (-0.120542 0.0227177 0)
  (-0.122707 0.0208822 0)
  (-0.12502 0.0191868 0)
  (-0.127295 0.0177565 0)
  (-0.129225 0.0167238 0)
  (-0.130269 0.0165988 0)
  (-0.129689 0.0184279 0)
  (-0.126298 0.0231725 0)
  (-0.118526 0.0319181 0)
  (-0.105147 0.0457814 0)
  (-0.086256 0.0646713 0)
  (-0.0630081 0.0840768 0)
  (-0.0382433 0.0956383 0)
  (0.00367492 0.0792298 0)
  (0.145422 0.00345287 0)
  (-0.209007 -0.132478 0)
  (-0.084838 -0.34229 0)
  (-0.442515 -0.138325 0)
  (-0.331581 0.0407075 0)
  (-0.297637 -0.0404679 0)
  (-0.258917 -0.0441404 0)
  (-0.249532 -0.0361499 0)
  (-0.242249 -0.0290368 0)
  (-0.233036 -0.0245158 0)
  (-0.221182 -0.0221108 0)
  (-0.207271 -0.021908 0)
  (-0.192555 -0.0243111 0)
  (-0.178504 -0.0290432 0)
  (-0.16618 -0.0350325 0)
  (-0.155983 -0.0413504 0)
  (-0.147905 -0.0477107 0)
  (-0.141726 -0.0539994 0)
  (-0.137031 -0.0599826 0)
  (-0.133416 -0.0654195 0)
  (-0.130618 -0.0699857 0)
  (-0.128504 -0.0733221 0)
  (-0.127035 -0.0751754 0)
  (-0.126227 -0.0754671 0)
  (-0.126059 -0.0742681 0)
  (-0.126454 -0.0720903 0)
  (-0.127254 -0.0691896 0)
  (-0.128263 -0.0656351 0)
  (-0.129232 -0.0614042 0)
  (-0.129824 -0.0563724 0)
  (-0.129603 -0.0503 0)
  (-0.127944 -0.0432273 0)
  (-0.123677 -0.0352285 0)
  (-0.114759 -0.0260379 0)
  (-0.098394 -0.0150442 0)
  (-0.0724179 -0.00125816 0)
  (-0.0376759 0.0160828 0)
  (0.0185874 0.0384631 0)
  (0.0693158 0.0404853 0)
  (0.117265 0.0201954 0)
  (0.173774 -0.0186792 0)
  (-0.188439 -0.0847115 0)
)
;

boundaryField
{
  floor
  {
    type noSlip;
  }
  ceiling
  {
    type noSlip;
  }
  sWall
  {
    type noSlip;
  }
  nWall
  {
    type noSlip;
  }
  sideWalls
  {
    type empty;
  }
  glass1
  {
    type noSlip;
  }
  glass2
  {
    type noSlip;
  }
  sun
  {
    type noSlip;
  }
  heatsource1
  {
    type noSlip;
  }
  heatsource2
  {
    type noSlip;
  }
  Table_master
  {
    type noSlip;
  }
  Table_slave
  {
    type noSlip;
  }
  inlet
  {
    type fixedValue;
    value uniform (0.277164 -0.114805 0);
  }
  outlet
  {
    type zeroGradient;
  }
} 	// ************************************************************************* //

