// -*- C++ -*-
// File generated by PyFoam - sorry for the ugliness

FoamFile
{
 version 2.0;
 format ascii;
 class volScalarField;
 location "1500";
 object T;
}

dimensions [ 0 0 0 1 0 0 0 ];

internalField nonuniform List<scalar> 459
(
  302.73
  302.45
  302.435
  302.431
  302.427
  302.422
  302.417
  302.411
  302.402
  302.392
  302.381
  302.372
  302.367
  302.366
  302.373
  302.5
  302.473
  302.463
  302.466
  302.471
  302.476
  302.481
  302.485
  302.49
  302.495
  302.499
  302.503
  302.508
  302.512
  302.516
  302.52
  302.525
  302.531
  302.555
  302.916
  302.492
  302.463
  302.464
  302.466
  302.465
  302.462
  302.454
  302.438
  302.416
  302.392
  302.371
  302.356
  302.35
  302.35
  302.349
  302.347
  302.502
  302.455
  302.447
  302.45
  302.456
  302.461
  302.463
  302.465
  302.466
  302.468
  302.469
  302.47
  302.472
  302.473
  302.476
  302.48
  302.487
  302.497
  302.536
  303.11
  302.545
  302.498
  302.505
  302.517
  302.526
  302.529
  302.521
  302.495
  302.456
  302.413
  302.377
  302.353
  302.344
  302.344
  302.348
  302.351
  302.428
  302.427
  302.436
  302.449
  302.462
  302.471
  302.47
  302.47
  302.47
  302.47
  302.469
  302.469
  302.469
  302.469
  302.469
  302.472
  302.477
  302.486
  302.528
  303.306
  302.612
  302.536
  302.548
  302.574
  302.599
  302.614
  302.606
  302.566
  302.502
  302.436
  302.382
  302.349
  302.336
  302.339
  302.348
  302.358
  302.374
  302.393
  302.419
  302.445
  302.469
  302.489
  302.503
  302.516
  302.526
  302.536
  302.544
  302.55
  302.554
  302.558
  302.561
  302.561
  302.531
  302.506
  302.495
  302.529
  303.497
  302.699
  302.584
  302.59
  302.627
  302.67
  302.704
  302.692
  302.63
  302.536
  302.447
  302.379
  302.34
  302.327
  302.334
  302.352
  302.372
  302.396
  302.424
  302.455
  302.485
  302.513
  302.535
  302.553
  302.569
  302.581
  302.591
  302.599
  302.603
  302.604
  302.602
  302.597
  302.588
  302.565
  302.534
  302.509
  302.525
  302.617
  302.66
  302.667
  303.67
  302.812
  302.669
  302.655
  302.692
  302.747
  302.782
  302.744
  302.654
  302.542
  302.437
  302.36
  302.32
  302.313
  302.331
  302.361
  302.396
  302.432
  302.469
  302.505
  302.539
  302.567
  302.59
  302.607
  302.621
  302.631
  302.639
  302.644
  302.646
  302.643
  302.636
  302.626
  302.612
  302.59
  302.559
  302.529
  302.526
  302.565
  302.583
  302.623
  303.831
  302.992
  302.854
  302.826
  302.841
  302.878
  302.849
  302.755
  302.623
  302.487
  302.376
  302.307
  302.282
  302.295
  302.334
  302.386
  302.438
  302.487
  302.531
  302.569
  302.601
  302.626
  302.645
  302.659
  302.669
  302.676
  302.681
  302.682
  302.681
  302.675
  302.663
  302.649
  302.633
  302.611
  302.583
  302.554
  302.542
  302.553
  302.565
  302.599
  304.063
  303.439
  303.29
  303.205
  303.14
  303.023
  302.852
  302.657
  302.473
  302.33
  302.243
  302.215
  302.236
  302.289
  302.362
  302.439
  302.507
  302.563
  302.606
  302.638
  302.662
  302.681
  302.694
  302.703
  302.709
  302.712
  302.713
  302.712
  302.708
  302.701
  302.69
  302.675
  302.659
  302.64
  302.619
  302.598
  302.592
  302.612
  302.638
  302.791
  304.396
  304.101
  303.803
  303.494
  303.153
  302.764
  302.426
  302.182
  302.043
  302.002
  302.035
  302.12
  302.226
  302.336
  302.444
  302.54
  302.601
  302.644
  302.674
  302.697
  302.713
  302.725
  302.732
  302.737
  302.74
  302.74
  302.739
  302.737
  302.734
  302.73
  302.728
  302.729
  302.732
  302.742
  302.761
  302.791
  302.833
  302.874
  302.899
  302.962
  293.397
  295.383
  297.291
  298.724
  299.772
  300.567
  301.174
  301.632
  301.972
  302.232
  302.4
  302.511
  302.592
  302.649
  302.686
  302.712
  302.73
  302.743
  302.753
  302.759
  302.762
  302.765
  302.766
  302.767
  302.767
  302.768
  302.768
  302.77
  302.772
  302.775
  302.781
  302.792
  302.81
  302.835
  302.865
  302.893
  302.913
  302.934
  294.569
  297.01
  299.181
  300.281
  300.982
  301.479
  301.841
  302.114
  302.321
  302.474
  302.577
  302.647
  302.694
  302.725
  302.746
  302.761
  302.77
  302.776
  302.781
  302.784
  302.786
  302.787
  302.788
  302.789
  302.79
  302.792
  302.793
  302.795
  302.797
  302.8
  302.805
  302.813
  302.825
  302.842
  302.863
  302.885
  302.883
  302.914
  298.256
  298.18
  298.174
  300.487
  301.418
  301.821
  302.07
  302.26
  302.408
  302.525
  302.614
  302.68
  302.727
  302.758
  302.78
  302.794
  302.803
  302.809
  302.813
  302.815
  302.816
  302.816
  302.817
  302.816
  302.816
  302.816
  302.816
  302.816
  302.816
  302.816
  302.816
  302.817
  302.819
  302.823
  302.829
  302.842
  302.853
  302.861
  302.864
  302.903
)
;

boundaryField
{
  floor
  {
    type wallHeatTransfer;
    Tinf uniform 305.2;
    alphaWall uniform 0.24;
    value nonuniform List<scalar> 29
(
  302.639
  302.987
  302.904
  302.862
  302.868
  302.882
  302.901
  302.924
  302.949
  302.973
  302.997
  303.02
  303.043
  303.064
  303.085
  303.105
  303.126
  303.149
  303.166
  303.217
  303.217
  303.095
  303.035
  303.002
  302.639
  302.987
  302.965
  302.72
  302.601
)
;
  }
  ceiling
  {
    type wallHeatTransfer;
    Tinf uniform 303.2;
    alphaWall uniform 0.24;
    value nonuniform List<scalar> 43
(
  298.579
  298.493
  298.477
  300.642
  301.523
  301.905
  302.141
  302.321
  302.463
  302.575
  302.662
  302.727
  302.774
  302.807
  302.83
  302.846
  302.857
  302.864
  302.869
  302.872
  302.873
  302.873
  302.873
  302.872
  302.871
  302.87
  302.869
  302.867
  302.866
  302.864
  302.862
  302.862
  302.861
  302.863
  302.866
  302.876
  302.885
  302.893
  302.897
  302.935
  304.343
  304.066
  295.081
)
;
  }
  sWall
  {
    type wallHeatTransfer;
    Tinf uniform 315.2;
    alphaWall uniform 0.36;
    value uniform 299.872;
  }
  nWall
  {
    type wallHeatTransfer;
    Tinf uniform 307.2;
    alphaWall uniform 0.36;
    value nonuniform List<scalar> 6
(
  303.471
  303.41
  303.316
  303.535
  303.513
  303.555
)
;
  }
  sideWalls
  {
    type empty;
  }
  glass1
  {
    type wallHeatTransfer;
    Tinf uniform 315.2;
    alphaWall uniform 4.3;
    value nonuniform List<scalar> 9
(
  311.151
  310.463
  310.036
  309.714
  309.448
  309.209
  309.04
  309.126
  309.378
)
;
  }
  glass2
  {
    type wallHeatTransfer;
    Tinf uniform 307.2;
    alphaWall uniform 4.3;
    value nonuniform List<scalar> 2
(
  305.457
  305.595
)
;
  }
  sun
  {
    type wallHeatTransfer;
    Tinf uniform 305.2;
    alphaWall uniform 0.24;
    value nonuniform List<scalar> 14
(
  302.982
  302.712
  302.694
  302.681
  302.669
  302.658
  302.646
  302.635
  302.623
  302.612
  302.603
  302.6
  302.604
  302.616
)
;
  }
  heatsource1
  {
    type fixedGradient;
    gradient uniform 0;
  }
  heatsource2
  {
    type fixedGradient;
    gradient uniform 0;
  }
  Table_master
  {
    type zeroGradient;
  }
  Table_slave
  {
    type zeroGradient;
  }
  inlet
  {
    type fixedValue;
    value uniform 290.15;
  }
  outlet
  {
    type zeroGradient;
  }
} 	// ************************************************************************* //

