/*--------------------------------*- C++ -*----------------------------------*\
  =========                 |
  \\      /  F ield         | OpenFOAM: The Open Source CFD Toolbox
   \\    /   O peration     | Website:  https://openfoam.org
    \\  /    A nd           | Version:  6
     \\/     M anipulation  |
\*---------------------------------------------------------------------------*/
FoamFile
{
    version     2.0;
    format      ascii;
    class       volScalarField;
    location    "1600";
    object      epsilon;
}
// * * * * * * * * * * * * * * * * * * * * * * * * * * * * * * * * * * * * * //

dimensions      [0 2 -3 0 0 0 0];

internalField   nonuniform List<scalar> 
459
(
0.000522998
0.000686962
0.000727817
0.000841188
0.000957703
0.00107779
0.00120733
0.00133436
0.00142401
0.00145461
0.00141006
0.00128711
0.0010976
0.000872976
0.000657869
4.74529e-05
8.30326e-05
0.000118155
0.000117589
0.000106183
9.20031e-05
7.57199e-05
6.1554e-05
5.03499e-05
4.16387e-05
3.48328e-05
2.94588e-05
2.51763e-05
2.17132e-05
1.88265e-05
1.63089e-05
1.39726e-05
1.2718e-05
9.86736e-06
0.00131755
0.00186385
0.000651086
0.000633877
0.000670223
0.000727952
0.000810624
0.000911089
0.000999139
0.00104706
0.00103582
0.000962186
0.000836011
0.000684887
0.000569275
0.000713217
0.000143381
5.66562e-05
0.000133095
0.000142609
0.000130615
0.000111671
9.37448e-05
8.45738e-05
6.83355e-05
5.40089e-05
4.26956e-05
3.40006e-05
2.73463e-05
2.22483e-05
1.83474e-05
1.54604e-05
1.36612e-05
1.28912e-05
3.47452e-05
2.32773e-05
0.00238556
0.00449892
0.000816881
0.000615027
0.000653287
0.000745356
0.000876596
0.00102824
0.00115412
0.0012201
0.00121165
0.00113353
0.000998003
0.000838212
0.000692536
0.000624488
0.000771841
0.000405878
0.000298895
0.000228904
0.000178592
0.000141551
0.00011959
0.000218126
0.000149066
0.0001056
7.74857e-05
5.87104e-05
4.57752e-05
3.66254e-05
3.00486e-05
2.53458e-05
1.91978e-05
1.62468e-05
6.79762e-05
3.75013e-05
0.00383046
0.00923129
0.00130762
0.000644941
0.000664417
0.000802244
0.00101497
0.00123967
0.00139472
0.00145789
0.00143143
0.00132988
0.00116199
0.000970727
0.000799345
0.000684601
0.000665505
0.00126083
0.00071606
0.000432394
0.000290695
0.000210191
0.000160383
0.000137281
0.000311571
0.000233006
0.000185628
0.000153995
0.000129988
0.000110529
9.37542e-05
7.8131e-05
6.2407e-05
3.65621e-05
2.48691e-05
0.00012108
5.09699e-05
0.00579706
0.0162827
0.0025944
0.000821236
0.000742105
0.000946547
0.0013312
0.00162483
0.00176627
0.00178855
0.00171846
0.00156963
0.00135592
0.00110909
0.000869156
0.000670858
0.00053492
0.000480684
0.000392084
0.000309796
0.00024345
0.00019223
0.000153708
0.000127984
0.000122882
0.000113288
0.000103786
9.45312e-05
8.50593e-05
7.54177e-05
6.60105e-05
5.72027e-05
4.91534e-05
3.86785e-05
3.0355e-05
8.34421e-05
5.88009e-05
9.40525e-05
0.000159777
0.000224752
0.00850284
0.0239947
0.00579522
0.00169329
0.00126727
0.00162452
0.00213473
0.00232534
0.00234126
0.00226568
0.0021224
0.00190453
0.00161544
0.00128493
0.000961418
0.000692311
0.000504172
0.000394875
0.000325169
0.0002683
0.000217899
0.000175943
0.000143631
0.000121679
0.000110599
0.000105183
0.000101452
9.72415e-05
9.13502e-05
8.28013e-05
7.1878e-05
6.08282e-05
5.08854e-05
4.21668e-05
3.78302e-05
5.85726e-05
6.13444e-05
7.2997e-05
0.000298791
0.000259929
0.0115175
0.0285301
0.0116939
0.00537885
0.00401689
0.00400956
0.00379711
0.00350375
0.00321776
0.00295627
0.00268321
0.00235057
0.00194425
0.00149644
0.00106822
0.000723433
0.000492428
0.000361025
0.00028659
0.000233415
0.000189278
0.000154401
0.000129732
0.00011524
0.000109841
0.000110048
0.000112242
0.000114606
0.000115913
0.000114319
0.00010581
9.35559e-05
8.15818e-05
7.15357e-05
6.92319e-05
8.19867e-05
0.000105742
0.000170688
0.000421085
0.000390707
0.0120995
0.0298771
0.0172178
0.012311
0.0096748
0.00754118
0.0060114
0.00499614
0.00433631
0.00386361
0.00342451
0.00291452
0.00231994
0.00169629
0.00112599
0.000698558
0.000438587
0.000302047
0.000232554
0.000187551
0.000154026
0.000130689
0.0001169
0.000111493
0.000112851
0.000118953
0.00012832
0.000140642
0.000156122
0.000174706
0.000195173
0.000208419
0.00022076
0.000246639
0.000299034
0.000456106
0.00083747
0.00165178
0.00554585
0.00133498
0.011102
0.0181925
0.0146172
0.0111967
0.00880013
0.00729824
0.0063991
0.00586106
0.00546687
0.00502013
0.00438503
0.00353012
0.00258596
0.00169761
0.000957463
0.000515579
0.000319129
0.000226214
0.000176282
0.000144387
0.000123207
0.000110707
0.000105485
0.000106231
0.000111832
0.000121613
0.000135677
0.000155044
0.000181563
0.000217981
0.000268107
0.000337248
0.000433216
0.000576889
0.000788407
0.00107636
0.00140975
0.00170957
0.00193606
0.0010667
0.00374485
0.00659657
0.00844538
0.00892378
0.00890385
0.00842891
0.00743125
0.00602532
0.00442049
0.00276919
0.0016629
0.000962309
0.00054693
0.000332161
0.000228882
0.000176299
0.000146057
0.000126633
0.000113941
0.000106627
0.000103886
0.00010505
0.000109646
0.000117592
0.000129294
0.000145744
0.000168673
0.000200886
0.000246761
0.000312523
0.000405917
0.000537529
0.000715757
0.000935017
0.00116858
0.00138812
0.00123913
0.000603341
0.00372231
0.00848555
0.00847954
0.00702595
0.00607971
0.00509552
0.00401896
0.00295719
0.00201254
0.001257
0.000766045
0.000476814
0.000318569
0.000237267
0.000195645
0.000172469
0.000157597
0.000146792
0.000138423
0.00013192
0.000127488
0.000125629
0.000126662
0.000131076
0.00013963
0.000153412
0.000173973
0.000203588
0.000245566
0.000304406
0.000386249
0.000497739
0.000641696
0.000811499
0.000991004
0.00124464
0.000660452
0.000664578
0.00267377
0.00319088
0.00360243
0.00451982
0.00401004
0.00357051
0.00323537
0.00278701
0.0022495
0.0017014
0.00120484
0.000810975
0.000541371
0.000374605
0.000274791
0.000213752
0.000174701
0.000148721
0.000131324
0.000120201
0.000113989
0.000111846
0.000113032
0.000116865
0.000123298
0.000132511
0.000144906
0.000161177
0.00018249
0.000210449
0.000246127
0.000291669
0.000349662
0.000423399
0.0005161
0.00063848
0.000673397
0.000509549
0.000410849
0.000596447
)
;

boundaryField
{
    floor
    {
        Cmu             0.09;
        kappa           0.41;
        E               9.8;
        type            epsilonWallFunction;
        value           nonuniform List<scalar> 
29
(
0.000657869
4.74529e-05
8.30326e-05
0.000118155
0.000117589
0.000106183
9.20031e-05
7.57199e-05
6.1554e-05
5.03499e-05
4.16387e-05
3.48328e-05
2.94588e-05
2.51763e-05
2.17132e-05
1.88265e-05
1.63089e-05
1.39726e-05
1.2718e-05
9.86736e-06
9.86736e-06
2.32773e-05
3.75013e-05
5.09699e-05
0.000657869
4.74529e-05
5.66562e-05
0.000405878
0.00126083
)
;
    }
    ceiling
    {
        Cmu             0.09;
        kappa           0.41;
        E               9.8;
        type            epsilonWallFunction;
        value           nonuniform List<scalar> 
43
(
0.00267377
0.00319088
0.00360243
0.00451982
0.00401004
0.00357051
0.00323537
0.00278701
0.0022495
0.0017014
0.00120484
0.000810975
0.000541371
0.000374605
0.000274791
0.000213752
0.000174701
0.000148721
0.000131324
0.000120201
0.000113989
0.000111846
0.000113032
0.000116865
0.000123298
0.000132511
0.000144906
0.000161177
0.00018249
0.000210449
0.000246127
0.000291669
0.000349662
0.000423399
0.0005161
0.00063848
0.000673397
0.000509549
0.000410849
0.000596447
0.011102
0.0181925
0.00372231
)
;
    }
    sWall
    {
        Cmu             0.09;
        kappa           0.41;
        E               9.8;
        type            epsilonWallFunction;
        value           uniform 0.00267377;
    }
    nWall
    {
        Cmu             0.09;
        kappa           0.41;
        E               9.8;
        type            epsilonWallFunction;
        value           nonuniform List<scalar> 6(0.000224752 0.000259929 0.000390707 0.000603341 0.000664578 0.000596447);
    }
    sideWalls
    {
        type            empty;
    }
    glass1
    {
        Cmu             0.09;
        kappa           0.41;
        E               9.8;
        type            epsilonWallFunction;
        value           nonuniform List<scalar> 9(0.000522998 0.00131755 0.00238556 0.00383046 0.00579706 0.00850284 0.0115175 0.0120995 0.011102);
    }
    glass2
    {
        Cmu             0.09;
        kappa           0.41;
        E               9.8;
        type            epsilonWallFunction;
        value           nonuniform List<scalar> 2(0.00133498 0.0010667);
    }
    sun
    {
        Cmu             0.09;
        kappa           0.41;
        E               9.8;
        type            epsilonWallFunction;
        value           nonuniform List<scalar> 
14
(
0.000522998
0.000686962
0.000727817
0.000841188
0.000957703
0.00107779
0.00120733
0.00133436
0.00142401
0.00145461
0.00141006
0.00128711
0.0010976
0.000872976
)
;
    }
    heatsource1
    {
        Cmu             0.09;
        kappa           0.41;
        E               9.8;
        type            epsilonWallFunction;
        value           nonuniform List<scalar> 3(9.40525e-05 0.000159777 0.000224752);
    }
    heatsource2
    {
        Cmu             0.09;
        kappa           0.41;
        E               9.8;
        type            epsilonWallFunction;
        value           nonuniform List<scalar> 4(0.000713217 0.000143381 0.000143381 0.000771841);
    }
    Table_master
    {
        Cmu             0.09;
        kappa           0.41;
        E               9.8;
        type            epsilonWallFunction;
        value           nonuniform List<scalar> 9(0.000218126 0.000149066 0.0001056 7.74857e-05 5.87104e-05 4.57752e-05 3.66254e-05 3.00486e-05 2.53458e-05);
    }
    Table_slave
    {
        Cmu             0.09;
        kappa           0.41;
        E               9.8;
        type            epsilonWallFunction;
        value           nonuniform List<scalar> 9(0.000311571 0.000233006 0.000185628 0.000153995 0.000129988 0.000110529 9.37542e-05 7.8131e-05 6.2407e-05);
    }
    inlet
    {
        type            turbulentMixingLengthDissipationRateInlet;
        mixingLength    0.01;
        phi             phi;
        k               k;
        value           uniform 0.000101881;
    }
    outlet
    {
        type            zeroGradient;
    }
}


// ************************************************************************* //
