/*--------------------------------*- C++ -*----------------------------------*\
  =========                 |
  \\      /  F ield         | OpenFOAM: The Open Source CFD Toolbox
   \\    /   O peration     | Website:  https://openfoam.org
    \\  /    A nd           | Version:  6
     \\/     M anipulation  |
\*---------------------------------------------------------------------------*/
FoamFile
{
    version     2.0;
    format      ascii;
    class       surfaceScalarField;
    location    "200";
    object      phi;
}
// * * * * * * * * * * * * * * * * * * * * * * * * * * * * * * * * * * * * * //

dimensions      [1 0 -1 0 0 0 0];

internalField   nonuniform List<scalar> 
852
(
-0.00288482
0.00295018
-0.0036217
0.00073691
-0.00431811
0.000696438
-0.00494106
0.000622984
-0.00545499
0.000513967
-0.00584192
0.000386955
-0.00608289
0.000241012
-0.0061544
7.15374e-05
-0.00602783
-0.000126539
-0.00567467
-0.000353129
-0.00508305
-0.000591584
-0.00426297
-0.000820053
-0.00322223
-0.0010407
-0.00188426
-0.00133795
-0.00188168
-0.000319362
0.000323835
0.000327989
-0.000647317
0.000905615
-0.000577591
0.00125069
-0.00034504
0.00145378
-0.000203059
0.00156925
-0.00011543
0.00161771
-4.84204e-05
0.00162974
-1.19996e-05
0.00162714
2.63235e-06
0.00161751
9.66785e-06
0.00160279
1.47599e-05
0.00158296
1.98641e-05
0.00155514
2.78499e-05
0.00151028
4.48963e-05
0.00142591
8.4411e-05
0.00126613
0.00015982
0.00102736
0.000238808
0.000796505
0.000230898
0.00080271
-0.00207111
0.00519579
-0.00293453
0.00160036
-0.00371608
0.00147802
-0.00435157
0.0012585
-0.00486523
0.00102766
-0.00525547
0.000777229
-0.00550773
0.000493303
-0.00559931
0.000163144
-0.00550581
-0.000220001
-0.00520929
-0.000649617
-0.00470844
-0.0010924
-0.00402235
-0.00150611
-0.0031913
-0.00187171
-0.00236587
-0.00216334
-0.00210393
-0.0021436
-0.00069946
-0.00140449
-0.000699478
0.00111606
-0.000782091
0.00129257
-0.000823792
0.00135882
-0.000643804
0.00147015
-0.000456341
0.0015688
-0.000301665
0.00162728
-0.000173879
0.00162751
-4.86125e-05
0.00162254
-6.99519e-06
0.00161882
6.39327e-06
0.00161561
1.2909e-05
0.00161249
1.79148e-05
0.00160918
2.32138e-05
0.00160458
3.24887e-05
0.0015946
5.49115e-05
0.00154932
0.000129731
0.0013644
0.000344776
0.00105167
0.00055158
0.000684976
0.000597632
0.00150284
-0.00148664
0.00694653
-0.00232228
0.00243604
-0.00304757
0.00220334
-0.00360987
0.00182083
-0.00407377
0.0014916
-0.00443921
0.00114271
-0.00468828
0.000742399
-0.00479431
0.00026921
-0.00472735
-0.00028693
-0.00446792
-0.000909018
-0.0040238
-0.00153649
-0.0034293
-0.00210058
-0.00274302
-0.00255796
-0.00206374
-0.00284259
-0.00144217
-0.00276514
-0.00064761
-0.00219902
-0.00134706
0.000829752
-0.00159761
0.00110404
-0.00109805
0.00120119
-0.000740909
0.00129196
-0.000547078
0.00138145
-0.000391119
0.00144805
-0.00024044
0.00139963
0.00139283
0.00139941
0.00141251
0.00143062
0.00145402
0.0014867
0.0015418
0.00167173
0.00137893
0.000637606
0.00102185
0.000908709
0.000591137
0.00102838
0.00211647
-0.00108053
0.00836489
-0.00183708
0.00319261
-0.00234651
0.0027128
-0.00276018
0.00223453
-0.00312592
0.00185738
-0.00343335
0.00145016
-0.00365924
0.000968315
-0.00377023
0.000380233
-0.00372339
-0.000333732
-0.00349524
-0.00113713
-0.00311239
-0.00191931
-0.00262733
-0.00258561
-0.00209084
-0.00309441
-0.00153223
-0.00340117
-0.000945413
-0.00335192
-0.00034282
-0.00280158
0.000285252
-0.00197509
0.00139535
-0.0010953
0.000940878
-0.0011431
0.00092516
-0.00108229
0.000988324
-0.000804035
0.00105123
-0.000609949
0.00113004
-0.000469887
0.00122659
-0.000336947
0.00144409
-0.000217617
0.00163984
-0.000195862
0.00182422
-0.000184499
0.00198579
-0.000161688
0.00210045
-0.000114773
0.00213511
-3.47782e-05
0.00205732
7.76746e-05
0.00183516
0.00022204
0.0014149
0.000420146
0.00123207
0.000820477
0.000858325
0.00128249
0.000266611
0.00162014
0.00241215
-0.000781971
0.00954561
-0.00144452
0.00385519
-0.0016132
0.00288151
-0.00183015
0.00245151
-0.00206161
0.00208887
-0.00227393
0.00166252
-0.00244011
0.00113453
-0.00252874
0.000468895
-0.0024789
-0.000383544
-0.00226858
-0.00134743
-0.00195624
-0.00223162
-0.00160444
-0.00293738
-0.0012469
-0.00345192
-0.000872528
-0.00377551
-0.000469429
-0.00375499
-9.39589e-05
-0.00317702
0.000259188
-0.00232821
0.000688236
-0.00152432
0.000747525
-0.00120236
0.00067835
-0.00101308
0.000678601
-0.000804246
0.000717516
-0.000648824
0.000788206
-0.000540537
0.000902153
-0.000450854
0.00107511
-0.000390536
0.00124802
-0.000368731
0.00141758
-0.000354022
0.00157522
-0.00031928
0.00170364
-0.000243154
0.00177552
-0.000106629
0.00176102
9.22133e-05
0.00164804
0.000335059
0.00144669
0.000621537
0.00124972
0.00101748
0.00101829
0.00151396
0.00049947
0.002139
0.000229218
0.00268245
-0.00124322
0.00147228
-0.00169296
0.000449581
-0.00163513
-0.000688463
0.0106835
-0.00122011
0.00438687
-0.000886346
0.00254778
-0.000821767
0.00238696
-0.000912715
0.00217985
-0.00102015
0.00176998
-0.00108826
0.00120267
-0.00110025
0.000480911
-0.000998578
-0.000485184
-0.000801918
-0.00154406
-0.00058725
-0.00244626
-0.000401556
-0.00312304
-0.00025467
-0.00359877
-0.000111632
-0.00391852
5.13265e-05
-0.00391792
0.000187456
-0.00331311
0.000298844
-0.00243956
0.000413986
-0.00163942
0.00039896
-0.00118729
0.000325446
-0.000939524
0.000296564
-0.000775323
0.000314997
-0.000667216
0.00037071
-0.000596209
0.000465828
-0.000545931
0.000593
-0.000517668
0.000733216
-0.000508907
0.00087986
-0.000500627
0.00102934
-0.000468718
0.0011746
-0.000388377
0.0013004
-0.000232396
0.00137323
1.94264e-05
0.00138069
0.000327636
0.0013461
0.000656156
0.00132877
0.00103486
0.00138877
0.00145399
0.00152788
0.00199993
0.00200609
0.00220428
0.00226948
0.00120894
0.00188856
0.00083055
0.000322606
-0.000902667
0.0120794
-0.00090435
0.00438859
9.40538e-05
0.00154941
0.000447854
0.00203319
0.000436301
0.00219143
0.000393395
0.00181291
0.000428956
0.00116714
0.00056338
0.000346516
0.000749421
-0.000671197
0.000893463
-0.00168807
0.000947283
-0.00250005
0.000908608
-0.00308433
0.000802403
-0.00349254
0.000683004
-0.00379909
0.000584382
-0.00381927
0.000462371
-0.00319107
0.000317055
-0.00229421
0.000182086
-0.00150441
4.72249e-05
-0.00105239
-5.66875e-05
-0.000835571
-0.00011235
-0.000719619
-0.000127789
-0.000651734
-0.000112914
-0.000611044
-6.96218e-05
-0.000589182
-2.82313e-06
-0.000584426
7.95845e-05
-0.000591275
0.000174202
-0.000595206
0.000283543
-0.000578021
0.00041276
-0.000517556
0.000565332
-0.000384931
0.0007312
-0.000146405
0.000885951
0.000172922
0.00102744
0.000514703
0.00121173
0.000850599
0.00150629
0.00115948
0.00199573
0.00151052
0.00275616
0.00144389
0.00336655
0.000598585
0.00346386
0.000733279
0.0038609
0.00247949
0.0101488
0.00302221
0.0038459
0.00304772
0.00152392
0.00293181
0.00214913
0.00270217
0.00242111
0.00257733
0.00193778
0.00259104
0.00115346
0.00274457
0.000193016
0.00287754
-0.000804138
0.00282454
-0.00163505
0.00258622
-0.0022617
0.00221751
-0.0027156
0.00179002
-0.00306502
0.00139576
-0.0034048
0.00106136
-0.00348484
0.000664589
-0.00279427
0.000250647
-0.00188023
-9.11607e-05
-0.00116257
-0.000311293
-0.000832218
-0.000449466
-0.000697356
-0.000540645
-0.000628397
-0.000603538
-0.0005888
-0.00064707
-0.00056747
-0.000675112
-0.000561099
-0.000691658
-0.00056784
-0.000700504
-0.000582389
-0.00070157
-0.000594102
-0.00069022
-0.000589331
-0.000654711
-0.000553028
-0.000570141
-0.000469464
-0.000396446
-0.000320064
-0.000152158
-7.13306e-05
0.000117738
0.000244844
0.000426734
0.000541639
0.000791712
0.000794535
0.00127662
0.00102565
0.00175903
0.000961513
0.00183245
0.000525207
0.000914744
0.00165102
0.0050917
0.0107547
0.0145974
0.0126828
0.00343851
0.0106056
0.00422644
0.00897154
0.00405516
0.00787251
0.00303684
0.00713131
0.00189468
0.00649626
0.0008281
0.00578282
-9.06692e-05
0.00497956
-0.000831758
0.00412587
-0.00140798
0.00325983
-0.00184954
0.00244283
-0.00224799
0.00180907
-0.00277102
0.00133575
-0.00301149
0.00067813
-0.00213661
6.6811e-06
-0.00120874
-0.000439762
-0.000716082
-0.000686478
-0.000585459
-0.000850589
-0.000533203
-0.000979697
-0.000499247
-0.00109326
-0.000475197
-0.00120083
-0.000459853
-0.00130862
-0.000453271
-0.00142207
-0.000454353
-0.00154595
-0.000458463
-0.00168378
-0.000456233
-0.00183919
-0.00043388
-0.00201772
-0.000374466
-0.00222757
-0.00025957
-0.00247958
-6.80215e-05
-0.0027598
0.000208932
-0.0030969
0.00058198
-0.00361681
0.00106159
-0.00445049
0.00162825
-0.00564613
0.00222133
-0.00730738
0.0026228
-0.00925899
0.00247686
-0.00856026
0.000952325
-0.0031158
0.00453234
0.00479816
0.00456989
0.00418891
0.0056977
0.00292737
0.0060904
0.00264415
0.00603444
0.00195067
0.00580004
0.00106252
0.00540905
0.000300352
0.00482217
-0.000244853
0.00406725
-0.000653045
0.0031995
-0.000981762
0.0023144
-0.00136287
0.00166139
-0.00211798
0.00120442
-0.00255448
0.000330535
-0.00126269
-0.000469398
-0.000408767
-0.000868946
-0.000316492
-0.00108579
-0.000368569
-0.00124845
-0.000370504
-0.00139514
-0.000352519
-0.00153715
-0.000333138
-0.00168237
-0.000314594
-0.0018381
-0.000297496
-0.00201065
-0.000281765
-0.00220385
-0.00026522
-0.00241707
-0.00024297
-0.00264363
-0.000207287
-0.00286975
-0.000148302
-0.00307171
-5.7573e-05
-0.00322404
8.43474e-05
-0.00333264
0.000317574
-0.0034163
0.000665682
-0.00349852
0.00114385
-0.00359558
0.00172535
-0.00364798
0.00227377
-0.00354952
0.00252438
-0.003084
0.00201138
-0.00172038
-0.000411251
-0.00474486
-0.000754282
0.00561165
0.00119657
0.00223807
0.00228644
0.00183751
0.00308506
0.00184556
0.00364456
0.00139118
0.00391412
0.000792979
0.00387508
0.000339418
0.0036046
2.5651e-05
0.00316528
-0.000213708
0.00258237
-0.000398829
0.00188766
-0.000668137
0.0011596
-0.00138989
0.000290953
-0.0016858
-0.00058816
-0.00038353
-0.00114227
0.00014539
-0.00136605
-9.26727e-05
-0.00153043
-0.000204141
-0.001683
-0.000217897
-0.00182827
-0.000207201
-0.00196565
-0.000195725
-0.00209642
-0.000183779
-0.00222322
-0.000170653
-0.00234885
-0.000156094
-0.00247508
-0.000138949
-0.00260129
-0.000116722
-0.00272304
-8.54908e-05
-0.00283169
-3.96129e-05
-0.00291398
2.4753e-05
-0.00293912
0.000109527
-0.00286461
0.000243104
-0.00265171
0.000452831
-0.00227139
0.00076356
-0.00173829
0.0011923
-0.00104928
0.00158479
2.47714e-05
0.00145038
0.00135724
0.000678956
0.00161035
-0.000664321
-0.00303409
-0.00867292
-0.0113813
-0.00571942
-0.00345159
-0.00158993
0.000276904
0.0016879
0.002501
0.00286147
0.0029095
0.00271942
0.00234548
0.00170362
0.000341456
-0.00132021
-0.00168252
-0.00151701
-0.00158946
-0.0017733
-0.00197087
-0.00215774
-0.00233316
-0.00249667
-0.00264714
-0.00278319
-0.0029023
-0.00299947
-0.00306577
-0.00308664
-0.00304368
-0.00291656
-0.00265653
-0.0021875
-0.0014085
-0.000201529
0.00139685
0.00286036
0.00355256
0.00290215
)
;

boundaryField
{
    floor
    {
        type            calculated;
        value           nonuniform List<scalar> 
29
(
0
0
0
0
0
0
0
0
0
0
0
0
0
0
0
0
0
0
0
0
-6.16159e-06
-1.51133e-05
-2.24427e-05
-2.90296e-05
-2.53984e-06
-4.43767e-06
-1.00969e-05
-1.41931e-05
-1.47653e-05
)
;
    }
    ceiling
    {
        type            calculated;
        value           nonuniform List<scalar> 
43
(
-5.40317e-05
-5.20243e-05
-5.02012e-05
-2.97414e-05
-2.4128e-05
-2.12588e-05
-1.97938e-05
-2.0094e-05
-2.10284e-05
-2.23584e-05
-2.36013e-05
-2.48653e-05
-2.62591e-05
-2.76991e-05
-2.40707e-05
-2.11809e-05
-2.00691e-05
-2.01828e-05
-2.02573e-05
-2.02893e-05
-2.02858e-05
-2.02651e-05
-2.02221e-05
-2.01411e-05
-2.00044e-05
-1.97976e-05
-1.95129e-05
-1.9148e-05
-1.87018e-05
-1.81672e-05
-1.75501e-05
-1.6879e-05
-1.61609e-05
-1.54061e-05
-1.46212e-05
-1.35456e-05
-1.30951e-05
-1.32005e-05
-1.38698e-05
-1.40694e-05
5.87907e-06
3.25408e-06
-5.92067e-05
)
;
    }
    sWall
    {
        type            calculated;
        value           uniform -0.000260266;
    }
    nWall
    {
        type            calculated;
        value           nonuniform List<scalar> 6(-5.79891e-05 -6.91342e-05 -7.43875e-05 -9.12812e-05 -0.000100384 -0.000117834);
    }
    sideWalls
    {
        type            empty;
        value           nonuniform 0();
    }
    glass1
    {
        type            calculated;
        value           nonuniform List<scalar> 9(-6.53245e-05 -0.000174479 -0.00026407 -0.000337791 -0.00039872 -0.000449401 -0.000493194 -0.000548824 -0.000611831);
    }
    glass2
    {
        type            calculated;
        value           nonuniform List<scalar> 2(-0.000316018 -0.00035271);
    }
    sun
    {
        type            calculated;
        value           uniform 0;
    }
    heatsource1
    {
        type            calculated;
        value           nonuniform List<scalar> 3(2.05615e-07 2.05455e-07 2.05466e-07);
    }
    heatsource2
    {
        type            calculated;
        value           nonuniform List<scalar> 4(5.13358e-08 5.15208e-08 0 0);
    }
    Table_master
    {
        type            calculated;
        value           nonuniform List<scalar> 9(-1.54237e-07 -1.54291e-07 -1.54305e-07 -1.54314e-07 -1.5432e-07 -1.54323e-07 -1.54323e-07 -1.54314e-07 -1.54279e-07);
    }
    Table_slave
    {
        type            calculated;
        value           nonuniform List<scalar> 9(1.54163e-07 1.54136e-07 1.54078e-07 1.54028e-07 1.53995e-07 1.5399e-07 1.54e-07 1.54039e-07 1.54129e-07);
    }
    inlet
    {
        type            calculated;
        value           uniform -0.005892;
    }
    outlet
    {
        type            calculated;
        value           nonuniform List<scalar> 2(0.00898722 0.0027604);
    }
}


// ************************************************************************* //
