// -*- C++ -*-
// File generated by PyFoam - sorry for the ugliness

FoamFile
{
 version 2.0;
 format ascii;
 class volScalarField;
 location "1300";
 object T;
}

dimensions [ 0 0 0 1 0 0 0 ];

internalField nonuniform List<scalar> 459
(
  302.653
  302.373
  302.358
  302.354
  302.35
  302.345
  302.34
  302.334
  302.325
  302.315
  302.305
  302.297
  302.294
  302.296
  302.305
  302.441
  302.415
  302.405
  302.409
  302.415
  302.42
  302.426
  302.431
  302.436
  302.441
  302.446
  302.451
  302.457
  302.461
  302.466
  302.472
  302.478
  302.485
  302.51
  302.839
  302.414
  302.385
  302.386
  302.388
  302.387
  302.383
  302.374
  302.357
  302.334
  302.311
  302.292
  302.281
  302.278
  302.28
  302.28
  302.278
  302.444
  302.395
  302.388
  302.392
  302.4
  302.406
  302.409
  302.411
  302.413
  302.415
  302.417
  302.419
  302.421
  302.423
  302.426
  302.431
  302.439
  302.451
  302.492
  303.033
  302.467
  302.42
  302.428
  302.44
  302.448
  302.45
  302.44
  302.411
  302.37
  302.328
  302.295
  302.276
  302.271
  302.274
  302.279
  302.281
  302.372
  302.369
  302.378
  302.392
  302.407
  302.418
  302.418
  302.418
  302.418
  302.418
  302.418
  302.418
  302.419
  302.419
  302.42
  302.424
  302.43
  302.44
  302.484
  303.23
  302.534
  302.458
  302.472
  302.498
  302.523
  302.537
  302.524
  302.477
  302.41
  302.345
  302.296
  302.27
  302.264
  302.272
  302.282
  302.291
  302.308
  302.329
  302.357
  302.386
  302.413
  302.437
  302.454
  302.469
  302.482
  302.493
  302.502
  302.51
  302.516
  302.521
  302.525
  302.526
  302.492
  302.464
  302.452
  302.486
  303.422
  302.621
  302.507
  302.515
  302.554
  302.598
  302.629
  302.607
  302.536
  302.438
  302.352
  302.291
  302.26
  302.257
  302.27
  302.291
  302.312
  302.337
  302.366
  302.399
  302.433
  302.463
  302.489
  302.51
  302.529
  302.544
  302.556
  302.566
  302.572
  302.573
  302.572
  302.567
  302.558
  302.532
  302.497
  302.469
  302.484
  302.583
  302.629
  302.636
  303.596
  302.735
  302.592
  302.58
  302.622
  302.683
  302.705
  302.655
  302.555
  302.44
  302.339
  302.271
  302.242
  302.246
  302.272
  302.308
  302.344
  302.381
  302.419
  302.458
  302.494
  302.525
  302.551
  302.571
  302.588
  302.601
  302.611
  302.617
  302.62
  302.618
  302.611
  302.6
  302.585
  302.561
  302.526
  302.492
  302.488
  302.529
  302.549
  302.59
  303.758
  302.915
  302.778
  302.754
  302.771
  302.805
  302.763
  302.656
  302.518
  302.382
  302.279
  302.222
  302.211
  302.237
  302.286
  302.343
  302.397
  302.446
  302.491
  302.53
  302.564
  302.592
  302.614
  302.63
  302.643
  302.652
  302.658
  302.66
  302.659
  302.654
  302.642
  302.627
  302.609
  302.586
  302.555
  302.522
  302.507
  302.519
  302.532
  302.566
  303.992
  303.366
  303.217
  303.138
  303.068
  302.934
  302.748
  302.544
  302.361
  302.226
  302.154
  302.143
  302.179
  302.245
  302.328
  302.41
  302.478
  302.532
  302.574
  302.607
  302.633
  302.654
  302.669
  302.68
  302.688
  302.692
  302.694
  302.693
  302.689
  302.682
  302.671
  302.655
  302.638
  302.617
  302.594
  302.57
  302.563
  302.583
  302.61
  302.761
  304.329
  304.031
  303.736
  303.422
  303.039
  302.63
  302.291
  302.058
  301.94
  301.92
  301.975
  302.078
  302.194
  302.313
  302.431
  302.521
  302.579
  302.62
  302.65
  302.673
  302.691
  302.704
  302.713
  302.719
  302.722
  302.722
  302.721
  302.718
  302.715
  302.711
  302.708
  302.708
  302.71
  302.718
  302.737
  302.766
  302.808
  302.849
  302.874
  302.938
  293.351
  295.227
  297.218
  298.699
  299.77
  300.574
  301.184
  301.643
  301.983
  302.243
  302.395
  302.501
  302.578
  302.631
  302.667
  302.692
  302.711
  302.725
  302.735
  302.742
  302.746
  302.748
  302.749
  302.749
  302.749
  302.749
  302.749
  302.75
  302.751
  302.753
  302.759
  302.77
  302.787
  302.812
  302.842
  302.87
  302.892
  302.915
  294.548
  297.001
  299.192
  300.306
  301.01
  301.503
  301.857
  302.125
  302.327
  302.474
  302.57
  302.636
  302.68
  302.71
  302.731
  302.745
  302.755
  302.762
  302.766
  302.769
  302.771
  302.772
  302.772
  302.773
  302.773
  302.773
  302.774
  302.775
  302.776
  302.779
  302.783
  302.791
  302.803
  302.82
  302.84
  302.863
  302.862
  302.895
  298.285
  298.21
  298.204
  300.521
  301.445
  301.841
  302.084
  302.268
  302.411
  302.524
  302.61
  302.674
  302.718
  302.748
  302.768
  302.782
  302.791
  302.797
  302.801
  302.803
  302.803
  302.803
  302.803
  302.802
  302.802
  302.801
  302.8
  302.799
  302.798
  302.798
  302.797
  302.798
  302.799
  302.802
  302.807
  302.82
  302.832
  302.84
  302.844
  302.884
)
;

boundaryField
{
  floor
  {
    type wallHeatTransfer;
    Tinf uniform 305.2;
    alphaWall uniform 0.24;
    value nonuniform List<scalar> 29
(
  302.582
  302.934
  302.852
  302.809
  302.812
  302.826
  302.844
  302.868
  302.894
  302.92
  302.944
  302.969
  302.992
  303.014
  303.036
  303.057
  303.079
  303.103
  303.122
  303.176
  303.176
  303.056
  302.996
  302.964
  302.582
  302.934
  302.918
  302.676
  302.541
)
;
  }
  ceiling
  {
    type wallHeatTransfer;
    Tinf uniform 303.2;
    alphaWall uniform 0.24;
    value nonuniform List<scalar> 43
(
  298.606
  298.52
  298.504
  300.674
  301.548
  301.924
  302.154
  302.329
  302.466
  302.574
  302.659
  302.722
  302.766
  302.798
  302.82
  302.835
  302.845
  302.853
  302.858
  302.86
  302.862
  302.862
  302.861
  302.86
  302.858
  302.857
  302.855
  302.852
  302.85
  302.848
  302.846
  302.844
  302.843
  302.844
  302.847
  302.856
  302.866
  302.874
  302.879
  302.917
  304.278
  303.999
  295.06
)
;
  }
  sWall
  {
    type wallHeatTransfer;
    Tinf uniform 315.2;
    alphaWall uniform 0.36;
    value uniform 299.894;
  }
  nWall
  {
    type wallHeatTransfer;
    Tinf uniform 307.2;
    alphaWall uniform 0.36;
    value nonuniform List<scalar> 6
(
  303.442
  303.378
  303.28
  303.517
  303.494
  303.536
)
;
  }
  sideWalls
  {
    type empty;
  }
  glass1
  {
    type wallHeatTransfer;
    Tinf uniform 315.2;
    alphaWall uniform 4.3;
    value nonuniform List<scalar> 9
(
  311.101
  310.415
  309.989
  309.668
  309.404
  309.165
  308.997
  309.085
  309.338
)
;
  }
  glass2
  {
    type wallHeatTransfer;
    Tinf uniform 307.2;
    alphaWall uniform 4.3;
    value nonuniform List<scalar> 2
(
  305.438
  305.581
)
;
  }
  sun
  {
    type wallHeatTransfer;
    Tinf uniform 305.2;
    alphaWall uniform 0.24;
    value nonuniform List<scalar> 14
(
  302.911
  302.639
  302.622
  302.608
  302.596
  302.584
  302.573
  302.561
  302.549
  302.538
  302.531
  302.529
  302.536
  302.553
)
;
  }
  heatsource1
  {
    type fixedGradient;
    gradient uniform 0;
  }
  heatsource2
  {
    type fixedGradient;
    gradient uniform 0;
  }
  Table_master
  {
    type zeroGradient;
  }
  Table_slave
  {
    type zeroGradient;
  }
  inlet
  {
    type fixedValue;
    value uniform 290.15;
  }
  outlet
  {
    type zeroGradient;
  }
} 	// ************************************************************************* //

