/*--------------------------------*- C++ -*----------------------------------*=========                 |
  \      /  F ield         | OpenFOAM: The Open Source CFD Toolbox
   \    /   O peration     | Website:  https://openfoam.org
    \  /    A nd           | Version:  6
     \/     M anipulation  |
\*---------------------------------------------------------------------------*/
FoamFile
{
    version     2.0;
    format      ascii;
    class       volScalarField;
    location    "1600";
    object      PMV;
}
// * * * * * * * * * * * * * * * * * * * * * * * * * * * * * * * * * * * * * //

dimensions      [0 0 0 0 0 0 0];

internalField   nonuniform List<scalar> 
459
(
1.6669898848195634
1.4517729879861367
1.425707943135668
1.4023622284705612
1.386924378642342
1.3774370917637504
1.3745313295602979
1.3775537332379544
1.3868148719092916
1.4034115019834603
1.427759289392437
1.4624209663768162
1.5084371372429841
1.5487017379943029
1.5525236464461087
1.6179551767070726
1.6045847841210379
1.5998092879579011
1.6012419562444622
1.6036296997233104
1.6064949305577993
1.6068094462011981
1.6029337715636867
1.602296211073158
1.6035671821572408
1.6049408397312643
1.6067568571774205
1.6091201309670808
1.612378130363847
1.6175052656180522
1.6271255849351303
1.6346660502218318
1.6380079359237933
1.649942437860029
1.6304283325369573
1.4728414361680204
1.4646639501545198
1.4434695915904094
1.43078093947383
1.423307929617947
1.420791554294682
1.4225087661948408
1.4266793494260208
1.434538923160466
1.4486534884982896
1.4715503138471795
1.5049170131227152
1.5401020597995407
1.540579833530033
1.5410576056427259
1.5424909122563675
1.5820627074220546
1.5950336074946128
1.5907353390586731
1.5926456987397486
1.5875124687837476
1.583408569065315
1.5820685249861652
1.5831091279805742
1.584214760929539
1.5854656383873171
1.5860982832769794
1.5868142466141202
1.5876765092387808
1.5887430146567674
1.5916940587585084
1.5992385739991473
1.6155677155372414
1.621297541829196
1.6132139681704258
1.6729736550735295
1.4759881297746038
1.4999571803839948
1.4900909201178616
1.487608619316162
1.4867087374166006
1.4880168199864592
1.4886804830792464
1.4842139717187242
1.4770256610242194
1.4729680737976862
1.4781197891177271
1.4946930893324273
1.5242659516077222
1.5372353835397874
1.5396242844529515
1.5415353761358435
1.4904154745148883
1.5310393428662097
1.5436432810266987
1.552456499394737
1.562316279240632
1.5690523355792185
1.573106122831225
1.5809863962388073
1.5869202988994697
1.5894520807715773
1.591046477224917
1.5920855134707117
1.5920952951155274
1.5912248975554497
1.5875036091935317
1.589452488646469
1.6067894139450316
1.5983124081260052
1.5521601910343097
1.7487278689079806
1.482318481841778
1.5282009440758322
1.5378137080255563
1.55522170736227
1.5706558280231755
1.5829868174448207
1.5787083424470323
1.5531446468626098
1.5168166141341854
1.4857828672621067
1.4688963534288597
1.4704407445962284
1.4894530338114906
1.5204032449728324
1.5396242844529515
1.5266215682183015
1.4861317785357333
1.4843139044862226
1.5116982186053143
1.5374803640132233
1.5589270610442947
1.5773034455207366
1.590548310037079
1.5957869524613364
1.5951184526022593
1.5948260978450246
1.5959945710462489
1.5977106235456247
1.6012384829506896
1.6079214993062403
1.61979049126358
1.641743451026107
1.6356323941503712
1.6213688155002917
1.5786513078916256
1.5079293743889932
1.8382415043657294
1.502716732009644
1.5552332821976071
1.5839396669002412
1.6308569260161285
1.6844851627806283
1.7091180098511227
1.6655072179405699
1.5943540556110265
1.524732146680726
1.4741855983951087
1.4458479375268025
1.4407608537075414
1.456492054561041
1.4845220049262946
1.5112049087832244
1.5192353468620627
1.5165010979987936
1.5252728105169404
1.549680395386044
1.5791726752269328
1.6059600252284036
1.6287787204194595
1.6437366546511456
1.6518518401700302
1.6583339956300593
1.6595757062906686
1.6597567688106232
1.6590661424908673
1.657556354653152
1.657203005085836
1.6578308900230372
1.6592694985571825
1.6458368963483951
1.6197498207198018
1.5607469922489907
1.5548260172055905
1.6823977121528406
1.6685372824441618
1.5072315605568605
1.9278879483356282
1.5458113722777376
1.6081802970867418
1.6371476784938908
1.7053012592583192
1.7329693044405157
1.723788697776853
1.6447705545325513
1.567769042430966
1.4960041778655533
1.4418274295568303
1.4132819402682233
1.4118828724725743
1.4336300581645913
1.4696762748031362
1.509839013199601
1.5412467086556876
1.5636272385997192
1.5880203258644132
1.619009894085538
1.636098298897423
1.6504197915155
1.662352961142607
1.671421293195296
1.679057184349905
1.6847837377881498
1.6895556237556644
1.6928958118579938
1.6943272875334177
1.693372972656311
1.6900328001674352
1.685260936322323
1.678102728228147
1.6561343122306016
1.622338918226543
1.5602852842755939
1.5583151349568711
1.572673355134966
1.5716678014400758
1.5834937223894698
2.0172514562596615
1.6409291912081414
1.7587514494545042
1.7326991263239548
1.7287720298026643
1.7031578474491245
1.6508370181844536
1.5782875875844984
1.499061701091479
1.430324576866233
1.3848493551929888
1.3710118383178367
1.3869295651420428
1.4272490015232173
1.4829773864562648
1.544212006072125
1.5883473488071356
1.612225189898625
1.633711207846126
1.6523291856107327
1.6680804179315372
1.6809660704766756
1.6909871463167183
1.698621593179577
1.7048241550898682
1.7091180098511227
1.7124575453175415
1.7138887399460534
1.7138887399460534
1.7115034039277017
1.7057783611331796
1.698621593179577
1.6905099743551673
1.679534409149376
1.6427897584963995
1.5845901089633192
1.5615639930266327
1.5500063810115137
1.5247582968779543
1.610310511529927
2.149645065555802
1.9588516685831645
1.9139991209572311
1.8153349598821935
1.756469890980436
1.675035030714694
1.5708664573373654
1.464456081977426
1.3755931639940606
1.3199231147943749
1.3046486037245653
1.327953078937238
1.3824688377991925
1.4570546565024127
1.5456497914292544
1.592168111536994
1.6251172718828104
1.6518518401700302
1.6723758097443826
1.6881240811976361
1.7005301147235576
1.7100721744309955
1.7177051561203802
1.722952482412934
1.7267685393078065
1.729153497130566
1.7305844429760249
1.7305844429760249
1.729153497130566
1.7262915405516817
1.721521421810399
1.7138887399460534
1.7053012592583192
1.695281593436717
1.6847837377881498
1.6742848170796112
1.6505847811765608
1.6371023072247568
1.5779137410270627
1.4980203494191708
2.3463541739274896
2.214137914184898
2.0480383798986326
1.867203458179675
1.6610065081542307
1.445769979199755
1.2750919106562257
1.1688938974427017
1.1332704850886581
1.1588759306800644
1.2309472716669692
1.3356668338164002
1.4561812319110052
1.5439242042467656
1.5988541665487894
1.6446914128862262
1.6738075684714286
1.693850131215482
1.7086409240931821
1.7196133078476814
1.7281995212020855
1.7315449762972062
1.7310366639047816
1.730434324519148
1.7288323238779335
1.7261435427398903
1.721923474613429
1.715911735757469
1.7088197700374144
1.699778564295303
1.6890833157398049
1.6777869347592034
1.666650633370722
1.6542039066533545
1.6401591636132349
1.6277340260952757
1.6185159007233232
1.6117713870665722
1.5988205273053133
1.5706645329713917
-2.981614192301376
-1.835235949791203
-1.1399429068440359
-0.3950188814063362
0.16468193184122473
0.5984328963477245
0.9489743695581451
1.215402841220021
1.3790108324485861
1.5047424354862247
1.5816607377127054
1.633711207846126
1.6574704140593783
1.6743394385764714
1.6868279849319998
1.6962315335574638
1.7021684890866084
1.7061016426747246
1.70735037530218
1.7075045676137537
1.706286077471814
1.704088376827299
1.7016663419815101
1.6978827216043575
1.6936406688747103
1.688549731020009
1.683812527758435
1.6792662503918934
1.6757628155094804
1.6733568989975118
1.6716003471288063
1.6709812220865574
1.670991014011568
1.6727074930233052
1.681697578942971
1.7118834285720081
1.8235464269468165
1.6696869060652189
-2.4766276166212475
-1.0099759654333325
0.03612191884151392
0.5701811231462991
0.9001897401795536
1.1040569229909474
1.2588030729247215
1.3778852473254009
1.4703653270402055
1.5399364150181063
1.5877704064412341
1.6209594708335102
1.6444463478051727
1.661549029716366
1.6735256696002179
1.6815727646810394
1.6871326355167555
1.6903401184726081
1.6923731302783953
1.6939796889070582
1.6945257754428285
1.6948175627158162
1.6943174514371648
1.6939935519324665
1.6929059788626901
1.6916566671208024
1.6904729055524055
1.6897580530918386
1.6905381429249553
1.6931550633131285
1.69997990159791
1.710519089449434
1.7226766438612988
1.7343598940842904
1.7489510633987404
1.809727813539833
1.7088999990865135
1.795758359239554
-0.8588408444389333
-0.9992280038240937
-0.8788960957712082
0.37275237395832617
0.887079052175311
1.104216251399992
1.2382441047042851
1.341786602753303
1.4250973660871318
1.4928387988073235
1.5481121625807575
1.5905294941413455
1.621201587979771
1.6431696348126292
1.6573424539678434
1.6663882832779673
1.670799373292862
1.673235380861639
1.6743051555872086
1.6745072550292897
1.6741756471924518
1.674466667271192
1.6748252898733187
1.6754991470658407
1.6764708410403293
1.6772547950263557
1.6789428286768922
1.6812361113302896
1.683974798306112
1.6885680719156884
1.695117295331349
1.705988946477321
1.7243276284672922
1.7573889738419348
1.7882804721388028
1.7930470288141482
1.797813312851982
1.7254615664032775
1.7290004180429408
1.631050541264729
)
;

boundaryField
{
    ".*"
    {
        type            zeroGradient;
    }
}


// ************************************************************************* //
