/*--------------------------------*- C++ -*----------------------------------*=========                 |
  \      /  F ield         | OpenFOAM: The Open Source CFD Toolbox
   \    /   O peration     | Website:  https://openfoam.org
    \  /    A nd           | Version:  6
     \/     M anipulation  |
\*---------------------------------------------------------------------------*/
FoamFile
{
    version     2.0;
    format      ascii;
    class       volScalarField;
    location    "1600";
    object      PPD;
}
// * * * * * * * * * * * * * * * * * * * * * * * * * * * * * * * * * * * * * //

dimensions      [0 0 0 0 0 0 0];

internalField   nonuniform List<scalar> 
459
(
59.96812149561272
48.28186439623597
46.87996977316152
45.63143975723609
44.810062172366926
44.307119404305766
44.15337101942653
44.313293995777975
44.80424879370135
45.6873946955551
46.990014813576074
48.85662828072233
51.35109678604413
53.54270301455385
53.75092471136895
57.31296796272458
56.58614745639752
56.326351125997704
56.4043007218358
56.53419648451967
56.69003635246134
56.7071406556856
56.49633967059599
56.46165616095501
56.53079576228789
56.60551378941376
56.70428073796412
56.83278873480913
57.00990565134035
57.28852558646989
57.81090956078634
58.219939753945724
58.40108960890884
59.04729066544887
57.990114233463125
49.420119981878976
48.9778379416138
47.834449426579795
47.15220558209364
46.751286697801504
46.61644260692981
46.708453499120345
46.93207467238067
47.35407213808715
48.113690634847444
49.35025129341669
51.15979020478382
53.0742530360436
53.10027551334504
53.126298343476584
53.20436884560028
55.36022362243677
56.06645760942543
55.832479282815925
55.93647778424082
55.657004841402944
55.433522447468285
55.36054046909109
55.417214512192615
55.4774276695801
55.54554751034464
55.57999843544239
55.618985302903276
55.66593697569965
55.72400730575482
55.884672620037485
56.29529712974342
57.183251292843906
57.49451287138652
57.05533636737224
60.29064184582154
49.59045950180001
50.89035277182414
50.35481128323743
50.2201705107324
50.17137105692676
50.24230856061691
50.27830360550368
50.03611283865968
49.64664144518704
49.426973681469555
49.705897254983164
50.60454204024693
52.21204023234963
52.918126170512394
53.04823092208952
53.15232151591394
50.372418283116154
52.58073936921039
53.267139617410834
53.74726635273114
54.28447752093701
54.65148899012244
54.8723421750339
55.30160243305758
55.62476013432945
55.76261365008393
55.84941815057822
55.905982880368626
55.90651537377897
55.859131514433145
55.65652242760667
55.76263585714318
56.7060512548379
56.24489948984824
53.731122689897866
64.33223949909743
49.93337535409772
52.426217936390636
52.94962185367157
53.89792521256608
54.7388503441807
55.410553271285266
55.177521045990865
53.78475871025203
51.80673258087835
50.121168192847065
49.206677015443
49.290218419874755
50.320208150915406
52.001849379554876
53.04823092208952
52.34024797969598
50.14008627811175
50.041530020700066
51.52838032018924
52.93146777202809
54.09981266760181
55.10099429434254
55.82229698204726
56.107460150967356
56.07107559640578
56.055163081046175
56.1187599324906
56.21215147730424
56.40411175421153
56.76761383662188
57.412663459482815
58.60347580621561
58.272329786906255
57.49838348350464
55.17441435745526
51.32349773356741
68.96724538700119
51.040245608829395
53.898555862711625
55.46244620902006
58.01336400095072
60.90996775155955
62.22958889192029
59.88814806031771
56.02946979397062
52.237412060495245
49.49287350437974
47.96252839718302
47.6886530479464
48.53645807674457
50.05281101532901
51.50155904727985
51.9383087496159
51.78957065671749
52.266837652261465
53.596019934339594
55.20281317146977
56.66094558139287
57.900616602010686
58.711420235015375
59.15056464554954
59.50091703667089
59.56798460937186
59.577762949906976
59.54046373593946
59.45890733495226
59.43981678217411
59.473738939912614
59.55144703350815
58.825126293180254
57.41045441796567
54.198973390333535
53.87636624041654
60.797777578284744
60.05156183736508
51.28557072152262
73.3918000706669
53.385243671772535
56.78168638301102
58.35446656570731
62.02566539506724
63.49886496719732
63.01138236857096
58.76739963192242
54.581571185682215
50.67571116354582
47.74605130367361
46.21451586692021
46.13971832825113
47.30523564447855
49.24886308950888
51.42730127038712
53.13659834330529
54.355906133851306
55.6846578365107
57.370263256209974
58.29758621400356
59.0731123590064
59.71793565430809
60.20700807794921
60.61813202671934
60.92601034823138
61.18225618677079
61.361449220859626
61.438200006488415
61.387035927046874
61.207864339394355
60.95164821230375
60.56677954014182
59.38207089069773
57.55106318935597
54.17381676136463
54.06647137566865
54.84876551758465
54.79398334723062
55.438159967694276
77.52414882310312
58.55936938944714
64.85994701126558
63.48453887860264
63.276166843574174
61.911054243002695
59.09567992878892
55.15460227543144
50.841721614832764
47.12770269645026
44.699937564233764
43.967337939248694
44.810337512486264
46.96263544186413
49.96908568085091
53.29811949613359
55.70246398695915
57.00159241627231
58.16816660419261
59.1763777732843
60.026928961706325
60.72080354930201
61.259071540468405
61.668282214854564
62.00015963718306
62.22958889192029
62.40784016982598
62.48418066061825
62.48418066061825
62.35692878092715
62.051167773674734
61.668282214854564
61.2334694609255
60.64380410505514
58.660143893236615
55.49786862476472
54.24348849958643
53.61377974941687
52.23883526015588
56.89750824516016
83.02693319956514
74.85796620653603
72.72314040444725
67.79915839367973
64.74000005736468
60.401657459199846
54.750325658166794
48.966602940064014
44.20953811186768
41.29227804630953
40.502617782330795
41.70938155765495
44.573683941534235
48.56682506575431
53.37644151347261
55.91047934662388
57.70190494709194
59.15056464554954
60.258435967262294
61.10541365132266
61.77045754156372
62.280535321876336
62.687597226817665
62.96691127777746
63.169762297656696
63.296418872683425
63.37236585811447
63.37236585811447
63.296418872683425
63.144419339810405
62.89077947527028
62.48418066061825
62.02566539506724
61.489351569423164
60.92601034823138
60.361260129091775
59.0820367468135
58.35200744135705
55.1342383740134
50.7851744024298
89.63020434567852
85.40736197954494
78.87364350517784
70.42361250057353
59.64524676488879
47.958329214386346
38.98940087315709
33.737831019538646
32.050041584691314
33.25916562474494
36.76901117653944
42.11129268463191
48.51968243780942
53.282442144188735
56.27437985150346
58.7631149039162
60.33555806802973
61.41261952588517
62.204110472312955
62.78921798707809
63.24576792865704
63.42332656047765
63.39636019206373
63.36439998107613
63.27936800594269
63.13655545332851
62.91217181460645
62.59203502733215
62.21366200151117
61.7302282309374
61.15690644478885
60.54978661192387
59.949824665246034
59.27773594705379
58.517654105294085
57.843928586146795
57.34342889521115
56.97692480681125
56.27254936793344
54.739324600078874
99.03037737113448
68.81476868250213
32.363107327777996
8.250675868231596
5.562071816011098
12.508144975519897
24.01938693650014
35.99938399345743
44.39044652003495
51.15030418843245
55.33833065470737
58.16816660419261
59.45426429905891
60.36420158843033
61.0358193441391
61.54025708424646
61.858130001386755
62.068446185252
62.135172981756895
62.14341077727702
62.078302988801006
61.96081892854241
61.831263148098856
61.62871232727874
61.401389245000885
61.12826445028425
60.87382271558705
60.629378962238306
60.44084097292599
60.31128508129188
60.21665599118992
60.183294360756136
60.183822032408386
60.27630420627892
60.760137090721926
62.37720789315919
68.2194571571859
60.113536523979874
92.92188756654318
26.539285682006323
5.0270114452611665
11.809837089019211
22.10937702476855
30.696558467483
38.16433567860173
44.330844411199294
49.286138354827294
53.06523111374287
55.67104972183652
57.47615306269345
58.74984675441027
59.67453721457548
60.3203753044678
60.753426222999146
61.05217954664793
61.224355344863184
61.33341814658139
61.4195654460937
61.448840112029764
61.464480658795694
61.437672721016305
61.42030866535001
61.361994435365446
61.294988914757276
61.23148045705479
61.1931201158455
61.234980892453045
61.37535138416375
61.7410062634032
62.30439317057425
62.95223933606742
63.57258071016288
64.34401063636966
67.51118856138847
62.217946598919525
66.79044031206263
20.56603718480072
26.084945223425862
21.305832733173943
7.892701415555862
21.612436118686986
30.703862993189986
37.13254959591467
42.43098806409722
46.84722524508779
50.503904948323864
53.510583675331
55.82127259468504
57.48930192145917
58.68071583891105
59.44735098263212
59.935674526210896
60.17349462166153
60.304739746498775
60.3623553957948
60.37323857669553
60.355381047044474
60.371052937444816
60.39036402121848
60.426645909352935
60.478954882506045
60.52114942720035
60.611979922380364
60.735324510820696
60.88254306804865
61.12924902073423
61.480545920427645
62.06242308804718
63.04003747163374
64.78833061157665
66.40274920720594
66.65001884402923
66.8967543696454
63.10031390704569
63.28829222364956
58.02386656802226
)
;

boundaryField
{
    ".*"
    {
        type            zeroGradient;
    }
}


// ************************************************************************* //
