// -*- C++ -*-
// File generated by PyFoam - sorry for the ugliness

FoamFile
{
 version 2.0;
 format ascii;
 class volVectorField;
 location "1600";
 object U;
}

dimensions [ 0 1 -1 0 0 0 0 ];

internalField nonuniform List<vector> 459
(
  (0.0331856 0.0881887 0)
  (-0.171562 0.0265204 0)
  (-0.196802 0.0179226 0)
  (-0.227573 0.0119731 0)
  (-0.249303 0.00547397 0)
  (-0.261055 -0.00131625 0)
  (-0.261407 -0.00840991 0)
  (-0.249661 -0.0157728 0)
  (-0.226737 -0.0226944 0)
  (-0.194614 -0.0280934 0)
  (-0.156666 -0.0311511 0)
  (-0.116593 -0.0315993 0)
  (-0.0778922 -0.0298266 0)
  (-0.0456036 -0.0273093 0)
  (-0.0347204 -0.0258126 0)
  (-0.00259729 0.00865994 0)
  (-0.0277744 -0.0194667 0)
  (-0.00234127 -0.0292713 0)
  (0.0216644 -0.0217183 0)
  (0.0387588 -0.0145985 0)
  (0.0516529 -0.00932025 0)
  (0.0593785 -0.00556257 0)
  (0.0632586 -0.00359853 0)
  (0.0650135 -0.00274863 0)
  (0.0659226 -0.00233427 0)
  (0.0664973 -0.00206311 0)
  (0.066809 -0.00184265 0)
  (0.0667934 -0.00158363 0)
  (0.0662437 -0.00111049 0)
  (0.064589 -3.85766e-05 0)
  (0.0606123 0.00216809 0)
  (0.0529915 0.00448007 0)
  (0.046271 0.00636087 0)
  (-0.0146771 0.0227646 0)
  (0.209373 0.180132 0)
  (-0.158549 0.0696844 0)
  (-0.15721 0.0529943 0)
  (-0.188626 0.0404592 0)
  (-0.209895 0.0264228 0)
  (-0.2217 0.0109511 0)
  (-0.22257 -0.00606081 0)
  (-0.211775 -0.0237632 0)
  (-0.190799 -0.039759 0)
  (-0.161948 -0.051639 0)
  (-0.128649 -0.0578427 0)
  (-0.0943193 -0.0581023 0)
  (-0.0620914 -0.0530373 0)
  (-0.035433 -0.0442036 0)
  (-0.0186638 -0.033351 0)
  (-0.00489834 -0.0152918 0)
  (-0.00502807 0.0174659 0)
  (0.0727524 0.0362059 0)
  (0.0315183 -0.0202759 0)
  (0.0389558 -0.0334719 0)
  (0.0507556 -0.0288166 0)
  (0.0599322 -0.0199918 0)
  (0.0661109 -0.0118456 0)
  (0.0686224 -0.00494473 0)
  (0.0690076 -0.00112436 0)
  (0.0689102 0.000489142 0)
  (0.0689907 0.00122307 0)
  (0.0691635 0.00167386 0)
  (0.0692854 0.00205246 0)
  (0.0693125 0.00253715 0)
  (0.0691903 0.0034744 0)
  (0.0683723 0.00579074 0)
  (0.0643548 0.0122117 0)
  (0.0542261 0.01757 0)
  (0.0501801 0.0211192 0)
  (-0.0560908 0.0490904 0)
  (0.370427 0.268992 0)
  (-0.173526 0.110329 0)
  (-0.117442 0.0851936 0)
  (-0.147258 0.0630718 0)
  (-0.165749 0.0400892 0)
  (-0.176145 0.0151104 0)
  (-0.175983 -0.0123136 0)
  (-0.164321 -0.0403277 0)
  (-0.1438 -0.0646981 0)
  (-0.117335 -0.081788 0)
  (-0.0884204 -0.0896978 0)
  (-0.0597374 -0.088719 0)
  (-0.0333536 -0.0799513 0)
  (-0.0113769 -0.0651866 0)
  (0.00502194 -0.0449593 0)
  (0.0164585 -0.0193602 0)
  (0.0225168 0.0174096 0)
  (0.119997 -0.0374368 0)
  (0.0789063 -0.0444167 0)
  (0.073053 -0.0420062 0)
  (0.0749346 -0.0343554 0)
  (0.0763004 -0.0247876 0)
  (0.077108 -0.0165707 0)
  (0.0753396 -0.0132535 0)
  (0.0708565 -0.00931722 0)
  (0.0677443 -0.00717739 0)
  (0.0663484 -0.00595205 0)
  (0.0657466 -0.00517051 0)
  (0.0654497 -0.00462633 0)
  (0.0654779 -0.00411827 0)
  (0.0663109 -0.00327077 0)
  (0.06918 -6.7657e-05 0)
  (0.0668751 0.0175096 0)
  (0.0525518 0.0297945 0)
  (0.0568605 0.0377984 0)
  (-0.0931653 0.0758605 0)
  (0.515118 0.340195 0)
  (-0.206414 0.146163 0)
  (-0.0762754 0.112172 0)
  (-0.103432 0.0817748 0)
  (-0.116084 0.0520243 0)
  (-0.122129 0.0189694 0)
  (-0.117257 -0.0187396 0)
  (-0.102423 -0.0570286 0)
  (-0.0819689 -0.0884682 0)
  (-0.0589758 -0.108999 0)
  (-0.0364576 -0.117154 0)
  (-0.0155744 -0.114466 0)
  (0.00325161 -0.102254 0)
  (0.0189326 -0.083224 0)
  (0.0324593 -0.0595623 0)
  (0.0472293 -0.0324558 0)
  (0.069844 -0.00265995 0)
  (0.102159 0.0118735 0)
  (0.108353 -0.0295108 0)
  (0.0928578 -0.0385105 0)
  (0.0834479 -0.0355948 0)
  (0.0787495 -0.0297718 0)
  (0.0754857 -0.0222992 0)
  (0.0737354 -0.0133101 0)
  (0.0754092 -0.00774726 0)
  (0.0798573 -0.0059499 0)
  (0.0834681 -0.0049275 0)
  (0.0857636 -0.00413714 0)
  (0.0869962 -0.00316693 0)
  (0.0865368 -0.00174758 0)
  (0.0834028 0.000315945 0)
  (0.0763561 0.00331833 0)
  (0.0623905 0.00783241 0)
  (0.0509331 0.0287395 0)
  (0.0386818 0.0458655 0)
  (0.0604655 0.0587784 0)
  (-0.13739 0.0986179 0)
  (0.639134 0.395196 0)
  (-0.246896 0.175298 0)
  (-0.0366211 0.127045 0)
  (-0.0577371 0.0917589 0)
  (-0.0617593 0.0579389 0)
  (-0.059457 0.0184633 0)
  (-0.0430231 -0.0292029 0)
  (-0.0238183 -0.0750595 0)
  (-0.00518678 -0.109397 0)
  (0.0113955 -0.129621 0)
  (0.0241082 -0.135122 0)
  (0.0341537 -0.129567 0)
  (0.0418822 -0.115308 0)
  (0.0481595 -0.0949506 0)
  (0.0541916 -0.0711066 0)
  (0.0618957 -0.0467957 0)
  (0.0739957 -0.0279112 0)
  (0.0847504 -0.0260479 0)
  (0.0857945 -0.0341355 0)
  (0.0786484 -0.0340209 0)
  (0.0698827 -0.0296473 0)
  (0.0630467 -0.0243768 0)
  (0.0581133 -0.0186137 0)
  (0.0553661 -0.0124066 0)
  (0.0552845 -0.0067017 0)
  (0.0574966 -0.0040298 0)
  (0.0599754 -0.0030123 0)
  (0.0623285 -0.00212428 0)
  (0.0644397 -0.000362495 0)
  (0.0658742 0.00275151 0)
  (0.0654574 0.00729559 0)
  (0.0626402 0.0134368 0)
  (0.0566864 0.0218683 0)
  (0.0496323 0.0377905 0)
  (0.0384868 0.0570969 0)
  (0.0679226 0.0784576 0)
  (-0.0367872 0.110776 0)
  (0.0473411 0.0256802 0)
  (-0.0690195 -0.0376221 0)
  (-0.285496 -0.0611307 0)
  (0.72832 0.440798 0)
  (-0.286069 0.194455 0)
  (-0.00690558 0.121221 0)
  (-0.00957804 0.0895656 0)
  (-0.000576278 0.0545473 0)
  (0.0190527 0.00628187 0)
  (0.049008 -0.0489317 0)
  (0.0688711 -0.0930011 0)
  (0.0813407 -0.122768 0)
  (0.0870872 -0.138179 0)
  (0.0874509 -0.140528 0)
  (0.0842142 -0.132369 0)
  (0.0788556 -0.11647 0)
  (0.0729426 -0.0957029 0)
  (0.0679262 -0.0727871 0)
  (0.065081 -0.0506516 0)
  (0.0651635 -0.0333134 0)
  (0.0651646 -0.0257812 0)
  (0.0611364 -0.0251033 0)
  (0.0532224 -0.0243079 0)
  (0.0445116 -0.0215876 0)
  (0.0374203 -0.0180808 0)
  (0.0324462 -0.0143383 0)
  (0.0298306 -0.010516 0)
  (0.029627 -0.00739205 0)
  (0.0313608 -0.0062804 0)
  (0.0339936 -0.00614145 0)
  (0.0371266 -0.00567213 0)
  (0.0405656 -0.00384844 0)
  (0.0441639 0.000167865 0)
  (0.0471026 0.00647663 0)
  (0.0485935 0.0147566 0)
  (0.0488886 0.025288 0)
  (0.049554 0.0400114 0)
  (0.0476901 0.0587391 0)
  (0.0760843 0.0836311 0)
  (0.0482297 0.103258 0)
  (0.0973862 0.0688238 0)
  (0.122025 0.0448998 0)
  (-0.138171 -0.0098386 0)
  (0.785031 0.482502 0)
  (-0.303864 0.178911 0)
  (0.023971 0.0650758 0)
  (0.0577004 0.0550986 0)
  (0.0839106 0.0297424 0)
  (0.127706 -0.0237208 0)
  (0.156499 -0.0719071 0)
  (0.170572 -0.106328 0)
  (0.171871 -0.126807 0)
  (0.163031 -0.134679 0)
  (0.14717 -0.13174 0)
  (0.127377 -0.120399 0)
  (0.106327 -0.103386 0)
  (0.0862504 -0.0833363 0)
  (0.0687589 -0.0624442 0)
  (0.0548285 -0.0430241 0)
  (0.0447154 -0.0279677 0)
  (0.036848 -0.0197222 0)
  (0.0289733 -0.0168874 0)
  (0.0205895 -0.0157202 0)
  (0.0128356 -0.0142015 0)
  (0.00678562 -0.0124503 0)
  (0.00273095 -0.0107467 0)
  (0.000773224 -0.00921378 0)
  (0.000834215 -0.00832151 0)
  (0.00241767 -0.00856143 0)
  (0.00484888 -0.00924017 0)
  (0.00788499 -0.0094268 0)
  (0.0115773 -0.00822764 0)
  (0.0160835 -0.00460915 0)
  (0.0225605 0.0023694 0)
  (0.0285764 0.0114275 0)
  (0.0344978 0.021988 0)
  (0.0422734 0.0348715 0)
  (0.0502788 0.0498993 0)
  (0.0763872 0.0700313 0)
  (0.0893835 0.0780295 0)
  (0.126034 0.0514743 0)
  (0.168256 0.0421351 0)
  (-0.0325917 0.095215 0)
  (0.892876 0.481948 0)
  (-0.0562952 0.157295 0)
  (0.119335 -0.0236587 0)
  (0.207458 -0.0594521 0)
  (0.253112 -0.0725018 0)
  (0.278303 -0.0890234 0)
  (0.287478 -0.104399 0)
  (0.28001 -0.114214 0)
  (0.258034 -0.117311 0)
  (0.225771 -0.113881 0)
  (0.187902 -0.104739 0)
  (0.148522 -0.0911124 0)
  (0.110908 -0.0747974 0)
  (0.0773737 -0.0575726 0)
  (0.0491697 -0.0406737 0)
  (0.0269884 -0.0256779 0)
  (0.0110228 -0.0149062 0)
  (-0.000194892 -0.00946471 0)
  (-0.00856779 -0.00803859 0)
  (-0.0154979 -0.00798693 0)
  (-0.0212079 -0.00799407 0)
  (-0.0255198 -0.00796573 0)
  (-0.028448 -0.00802968 0)
  (-0.0300441 -0.00830445 0)
  (-0.0304762 -0.00899381 0)
  (-0.0301416 -0.0101715 0)
  (-0.0294405 -0.0114864 0)
  (-0.0284742 -0.012462 0)
  (-0.0270589 -0.0126005 0)
  (-0.0247518 -0.0113092 0)
  (-0.0204743 -0.00782929 0)
  (-0.0107558 -0.00150019 0)
  (-0.00158788 0.00651764 0)
  (0.0101142 0.014742 0)
  (0.0225083 0.0217838 0)
  (0.0451325 0.0301945 0)
  (0.0655026 0.0239146 0)
  (0.0849511 -0.00245059 0)
  (0.145553 0.0508699 0)
  (-0.472203 0.217253 0)
  (1.04503 0.426644 0)
  (0.494969 0.278611 0)
  (0.514123 0.172803 0)
  (0.549306 0.0948758 0)
  (0.529576 0.0412271 0)
  (0.482206 -0.00131803 0)
  (0.427443 -0.0325109 0)
  (0.367538 -0.0515796 0)
  (0.303299 -0.0597904 0)
  (0.238077 -0.0596287 0)
  (0.175934 -0.0537739 0)
  (0.119778 -0.0442264 0)
  (0.0718065 -0.0330886 0)
  (0.0325561 -0.0220138 0)
  (0.00133251 -0.0118705 0)
  (-0.0205633 -0.0047144 0)
  (-0.0330673 -0.0016014 0)
  (-0.0407462 -0.000941616 0)
  (-0.0460698 -0.00159016 0)
  (-0.0505779 -0.00263415 0)
  (-0.0544541 -0.00368298 0)
  (-0.0577159 -0.00471508 0)
  (-0.0604277 -0.00579736 0)
  (-0.062705 -0.00696506 0)
  (-0.0647774 -0.00824927 0)
  (-0.066994 -0.00957852 0)
  (-0.0697088 -0.0106878 0)
  (-0.0732112 -0.0111937 0)
  (-0.0778015 -0.0106135 0)
  (-0.0839091 -0.00832443 0)
  (-0.092124 -0.00357545 0)
  (-0.102364 0.00418401 0)
  (-0.112959 0.0146149 0)
  (-0.128572 0.0278482 0)
  (-0.153163 0.043732 0)
  (-0.188879 0.0607782 0)
  (-0.240278 0.0746089 0)
  (-0.30186 0.0830639 0)
  (-0.379534 0.0868469 0)
  (-0.653864 0.0812148 0)
  (-0.180926 -0.0206938 0)
  (0.100419 -0.0354621 0)
  (0.177416 -0.0548819 0)
  (0.164807 -0.0474493 0)
  (0.145923 -0.0344424 0)
  (0.122155 -0.0226654 0)
  (0.0906396 -0.0126464 0)
  (0.0551314 -0.00479683 0)
  (0.020419 0.000633326 0)
  (-0.012383 0.00426228 0)
  (-0.0365025 0.00566188 0)
  (-0.0540878 0.00586668 0)
  (-0.0655045 0.00504094 0)
  (-0.0715801 0.00308891 0)
  (-0.0749916 0.000662115 0)
  (-0.0773414 -0.00183021 0)
  (-0.0794802 -0.00434877 0)
  (-0.0817258 -0.0067039 0)
  (-0.0842777 -0.00870182 0)
  (-0.0870664 -0.0101397 0)
  (-0.0899363 -0.011161 0)
  (-0.0929515 -0.0118366 0)
  (-0.0962922 -0.0122048 0)
  (-0.10014 -0.0122155 0)
  (-0.1046 -0.0116704 0)
  (-0.109643 -0.0102292 0)
  (-0.11506 -0.00744356 0)
  (-0.120444 -0.00280302 0)
  (-0.125179 0.00405016 0)
  (-0.128803 0.0134011 0)
  (-0.13169 0.0261724 0)
  (-0.13411 0.0428814 0)
  (-0.136835 0.0629655 0)
  (-0.140008 0.0833403 0)
  (-0.139809 0.0957252 0)
  (-0.1179 0.0856426 0)
  (-0.0443064 0.0286416 0)
  (-0.20892 -0.186162 0)
  (0.0366759 0.197642 0)
  (0.0145964 0.0635767 0)
  (-0.0312295 0.0115093 0)
  (-0.0547035 0.0107186 0)
  (-0.0728232 0.0167098 0)
  (-0.0862291 0.0211557 0)
  (-0.0954023 0.0248471 0)
  (-0.102284 0.0279489 0)
  (-0.107279 0.0298917 0)
  (-0.110625 0.0304034 0)
  (-0.112126 0.0299222 0)
  (-0.112233 0.0296096 0)
  (-0.111189 0.0296925 0)
  (-0.109547 0.0302143 0)
  (-0.107951 0.0313773 0)
  (-0.106679 0.0331125 0)
  (-0.105863 0.0350219 0)
  (-0.105535 0.0366193 0)
  (-0.105671 0.0374434 0)
  (-0.106162 0.0370801 0)
  (-0.107047 0.0358174 0)
  (-0.108306 0.0341636 0)
  (-0.109934 0.0322394 0)
  (-0.111902 0.030134 0)
  (-0.114136 0.0279571 0)
  (-0.116492 0.0258252 0)
  (-0.118717 0.0238265 0)
  (-0.120332 0.0222313 0)
  (-0.120554 0.0222271 0)
  (-0.118238 0.0249624 0)
  (-0.111943 0.0314363 0)
  (-0.100464 0.0425561 0)
  (-0.0838892 0.0581924 0)
  (-0.0636981 0.0744699 0)
  (-0.0425544 0.0818565 0)
  (0.0382376 0.0341201 0)
  (0.150296 -0.0578487 0)
  (-0.0517678 -0.0626964 0)
  (-0.0891592 -0.345607 0)
  (-0.445801 -0.138514 0)
  (-0.332772 0.0437014 0)
  (-0.291323 -0.0444821 0)
  (-0.250671 -0.0506724 0)
  (-0.239482 -0.0431751 0)
  (-0.231593 -0.0361112 0)
  (-0.222466 -0.0316388 0)
  (-0.21106 -0.0293286 0)
  (-0.197617 -0.0292626 0)
  (-0.183075 -0.0319525 0)
  (-0.168795 -0.0374219 0)
  (-0.155988 -0.044948 0)
  (-0.145287 -0.0532994 0)
  (-0.1368 -0.0618999 0)
  (-0.130388 -0.0705063 0)
  (-0.125691 -0.0787893 0)
  (-0.122265 -0.0863571 0)
  (-0.119764 -0.0928049 0)
  (-0.117977 -0.0977139 0)
  (-0.116813 -0.100765 0)
  (-0.116276 -0.101802 0)
  (-0.11635 -0.101007 0)
  (-0.116933 -0.0989845 0)
  (-0.117866 -0.0958988 0)
  (-0.118985 -0.0918407 0)
  (-0.120073 -0.0868155 0)
  (-0.120823 -0.0807223 0)
  (-0.120836 -0.0733256 0)
  (-0.119578 -0.0645139 0)
  (-0.116086 -0.0547917 0)
  (-0.108546 -0.0440661 0)
  (-0.0943953 -0.0319944 0)
  (-0.0714722 -0.0178724 0)
  (-0.0401695 -0.00118665 0)
  (0.00417663 0.0176172 0)
  (0.0455605 0.00995262 0)
  (0.106922 -0.0442949 0)
  (0.119257 -0.0857116 0)
  (-0.516853 0.0126403 0)
)
;

boundaryField
{
  floor
  {
    type noSlip;
  }
  ceiling
  {
    type noSlip;
  }
  sWall
  {
    type noSlip;
  }
  nWall
  {
    type noSlip;
  }
  sideWalls
  {
    type empty;
  }
  glass1
  {
    type noSlip;
  }
  glass2
  {
    type noSlip;
  }
  sun
  {
    type noSlip;
  }
  heatsource1
  {
    type noSlip;
  }
  heatsource2
  {
    type noSlip;
  }
  Table_master
  {
    type noSlip;
  }
  Table_slave
  {
    type noSlip;
  }
  inlet
  {
    type fixedValue;
    value uniform (0.277164 -0.114805 0);
  }
  outlet
  {
    type zeroGradient;
  }
} 	// ************************************************************************* //

