/*--------------------------------*- C++ -*----------------------------------*=========                 |
  \      /  F ield         | OpenFOAM: The Open Source CFD Toolbox
   \    /   O peration     | Website:  https://openfoam.org
    \  /    A nd           | Version:  6
     \/     M anipulation  |
\*---------------------------------------------------------------------------*/
FoamFile
{
    version     2.0;
    format      ascii;
    class       volScalarField;
    location    "400";
    object      PPD;
}
// * * * * * * * * * * * * * * * * * * * * * * * * * * * * * * * * * * * * * //

dimensions      [0 0 0 0 0 0 0];

internalField   nonuniform List<scalar> 
459
(
59.103232574517364
47.766371228136336
46.870124067732924
45.61521392790785
44.694447650183804
43.99739851927177
43.52905962096298
43.29123353959678
43.315668138385725
43.584061981267276
44.16538991858563
45.14416867501304
46.73031793552134
48.700708283078725
49.3226107645062
55.904737728540596
55.12477280870422
55.020738917648956
54.994729339744126
54.81932592222498
54.08029495907556
53.758780402122525
53.64754049567862
53.619782056720915
53.59440766673675
53.610539482081094
53.61961973052411
53.68124347152432
53.76811031269504
53.965848578019994
54.37530411808337
54.81265111550471
54.78663847196303
55.15078012277901
57.70237828606339
48.26293899839093
48.51080199483815
47.279419568239625
46.50478637950436
45.956847401150206
45.60982034433409
45.435452248520946
45.464478111661855
45.631718583831756
45.91563957546084
46.35947541504298
47.03990815653283
47.92698059963702
48.94788329691436
51.877075024854975
52.861569113986924
51.29919156347135
54.94270893270558
54.83866341326342
54.23428082709726
53.66989130859061
53.36580436102367
53.19239849707007
53.12367118428682
53.05444649144487
52.96250928006889
52.86344753643847
52.767129048650595
52.675750059838755
52.59359827732204
52.58993028005496
52.86924506824249
53.77206657357836
53.82410224517363
52.70973411284484
60.97058407553884
47.77527700412376
50.09538517214005
49.28720707874967
48.99401076378509
48.842919759047255
48.7465860231975
48.75026787123758
48.84247540140845
48.884246338069126
48.71199205667144
48.30516153783162
47.81358380261486
47.58873697936902
48.365268486482485
51.278160645855905
53.22572742762407
49.51060855182401
53.14399969997659
54.206976470670845
54.23965911685576
54.15770757550907
54.07449185109591
54.012938455365486
54.07777882568986
54.04061959738536
53.874832991334266
53.68906295608633
53.48469309826634
53.252249923108295
52.94159381593305
52.45307018893483
52.289406059806765
53.05602956796829
52.24402200889075
49.20672206844697
65.73771194403977
47.59701782824898
51.20844163249918
51.11279443865007
51.63372604010971
52.13567295037487
52.58621415667168
52.9705947846055
53.211094658047216
53.100078000683276
52.24909746263246
50.68362398811556
48.72597346333018
47.21493658847881
47.327202232410016
49.573239865163785
53.51189468805758
54.1103003481304
52.138460384183276
53.51419597483143
54.858405534942946
55.410824824856235
55.46282700264216
55.44865311806569
54.883540765442646
54.15978203481673
53.55883025985751
53.02838825285846
52.640124570808425
52.41564592130855
52.460823385699655
52.89301765793956
53.95672603229165
53.88653273893117
53.30471261284291
50.775012119913114
46.5891933238008
70.80937541538607
48.32102871326797
52.043563765797565
52.607378798893116
53.99663462586486
55.390411849091365
56.723498830300095
57.77019929563927
58.270094398475926
57.7783238882036
55.85802145768372
52.881128384541235
49.47684068303274
46.77927621340667
46.322292661622306
48.26805061719294
51.48686424314158
53.62291048603359
53.80870346896865
55.11962577672052
55.82676870288607
55.98269958530671
56.06065398219658
56.06065398219658
56.06065398219658
56.034670030077955
55.77629025303199
55.162587172245026
54.62419054579712
54.21798322469899
54.01393407371553
54.01029717453679
54.16678258217559
53.7117485393168
52.64763969582731
49.43551810046
49.11481024329795
55.98269958530671
54.19583367151858
45.52114550181007
75.32612346260318
50.249031038692365
53.83363923753963
53.88552565573375
55.64872693332978
57.94064139429208
60.637314475172325
62.37416152817815
63.3637827638197
61.60820700039022
58.17269724695898
54.136681404072675
49.72619571567279
46.32164963973549
45.67520981832523
47.54448774051786
50.890812141967814
54.096229677819146
55.67081030810153
56.16458107058337
56.45030387389344
56.580137811965294
56.60610141104354
56.60610141104354
56.580137811965294
56.55417313561871
56.502240594396106
56.4243339734446
56.29446950156333
56.112619291984466
55.8527591566911
55.45716670012878
54.82360458226328
53.67575838759092
52.1818782898296
48.93463105557097
49.189980908168714
49.979623086157126
49.61463001897465
49.7451617015092
78.92939768921914
55.15519985604427
60.97378373074222
57.03489636685567
56.68654246375154
58.64856555916608
61.55813118753304
62.65385614060832
64.12946550385735
61.22807899293092
57.95638579708678
53.843106054885745
49.31607766566766
45.804919304119494
45.28142061626918
47.49551484200566
51.358689764287384
55.350977438005955
56.398363060610755
56.83972354010328
57.02136365513651
57.073249640967596
57.0991907146923
57.0991907146923
57.073249640967596
57.047307284165974
56.995418764717186
56.865675771218875
56.70994481828613
56.47627275114733
56.138600628076766
55.7747855133601
55.410824824856235
54.670188445244754
52.748330468991796
49.745920082497214
48.89920438126176
48.36942708471647
46.805475956358435
51.74060059726442
84.26195386806867
73.24930155305167
71.32991151750295
64.48905494086532
61.340125879896306
60.422566583615016
60.5005079490291
60.616591879691605
60.15685417974872
58.77291320746361
56.04155578914946
52.193672687974875
47.847133061121795
44.77709075465806
45.080071504410306
48.23172996601781
53.037420650044744
56.29446950156333
57.073249640967596
57.35852849614213
57.48814547355376
57.53998214329612
57.56589826587937
57.56589826587937
57.56589826587937
57.53998214329612
57.46222494812376
57.35852849614213
57.177006128950346
56.969472623753056
56.65802533412247
56.1905606087137
55.8527591566911
55.514826725823845
55.15078012277901
54.4595422598972
53.34949095994507
52.81600290228595
49.51645033888849
45.05885155681776
90.44352728134571
85.81533533261968
78.99994892234284
72.04465512404978
66.74690133970026
63.29149367804056
61.2698660551413
60.08070167522499
58.55858233567361
55.7523362086109
52.36880764532802
48.80577725807714
45.207657331529084
43.45590934387003
45.572764903024
50.29501747021314
55.59282152019333
57.073249640967596
57.61772603213238
57.82497578406707
57.92856265433829
57.98034628348147
57.949989343412945
57.58939764437104
57.20818979319728
56.82473627288087
56.41263201288545
55.971464404676894
55.49015344429531
54.988151878742926
54.41453454541241
53.84099158595077
53.374105716803896
52.714449974955585
51.957899898958644
51.296441940478545
50.816349486675094
50.52738263113326
49.910630732232065
48.175357714726886
87.22220206966314
5.115655675313334
17.236693556118354
31.085674900670227
38.297929265035684
41.32558634953369
42.36847119866584
42.917931024294134
43.075999575223896
42.91718292272279
42.09431422727644
43.33441196899744
48.58205820536053
54.42250794208674
56.81377012346479
57.77317271700103
58.13565690229545
57.978276303496266
57.52046212875291
57.09479223840338
56.65517291771324
56.23949523169402
55.78882279138723
55.35402712581592
54.890452277743066
54.466920054508286
54.079421200477285
53.78069591033135
53.56620242382533
53.50244698143135
53.49831660329671
53.542366566265294
53.60092096280892
53.75517505597522
54.37425974332513
56.35241302503046
60.35235402496597
50.94485808467255
63.37339345249051
5.031523954367557
14.063010300669461
24.695410531813195
31.459535490934968
34.854821269116016
36.38715641748998
37.654594591518574
39.11676979893152
40.73413918465573
41.47796830931686
46.4415562254265
54.34445783326208
56.83972354010328
56.52701729301507
56.735603285453465
56.65786004267096
56.41235461130814
56.10818949746245
55.800744706269086
55.54355154438379
55.306481963900495
55.08418795979117
54.89894956869238
54.69829669183376
54.54230883533702
54.391114606398105
54.351856523992694
54.385062952619805
54.620065186291775
55.10664525896238
55.8324844575724
56.582857855025445
57.195383816051624
57.85203124808333
59.988006066411
56.397910289576046
53.266981146963325
18.261366750994895
21.63313241627013
18.41770755434308
7.8643265846887545
19.133906556789498
30.343110742989694
37.35578644933941
37.20177438169474
35.37577191316049
34.40824557699901
34.23808725519616
34.344349842825764
34.49701056227518
44.76093689344448
51.01078284081115
52.014574573615036
52.22289802148734
52.20063104574415
52.19357516733105
52.167398721963465
52.16482329473249
52.15481335042809
52.19539264649931
52.234207754203176
52.30144388249143
52.37293830437663
52.51191787472712
52.705971588321425
52.95321417389525
53.34812228627003
53.89428587163671
54.714599795490265
56.05897727479025
58.375664021412184
60.738846464530425
61.14887335418298
59.37768401351541
56.57123460068312
54.027384664348475
54.48764358276565
)
;

boundaryField
{
    ".*"
    {
        type            zeroGradient;
    }
}


// ************************************************************************* //
