/*--------------------------------*- C++ -*----------------------------------*=========                 |
  \      /  F ield         | OpenFOAM: The Open Source CFD Toolbox
   \    /   O peration     | Website:  https://openfoam.org
    \  /    A nd           | Version:  6
     \/     M anipulation  |
\*---------------------------------------------------------------------------*/
FoamFile
{
    version     2.0;
    format      ascii;
    class       volScalarField;
    location    "2600";
    object      PPD;
}
// * * * * * * * * * * * * * * * * * * * * * * * * * * * * * * * * * * * * * //

dimensions      [0 0 0 0 0 0 0];

internalField   nonuniform List<scalar> 
459
(
58.321524223345264
46.49920815535207
45.07437276915477
43.848421279536225
43.0381583555093
42.56375020622904
42.46104788509237
42.692150229961726
43.28080888945142
44.28921626252254
45.77619227668577
47.86187203103639
50.64016686181915
52.05845315615263
52.37046325645114
56.09057223502443
55.38857641019302
55.10244428238619
55.23251217185608
55.38857641019302
55.5446196626497
55.69601966960686
55.43560384659085
55.40372319253328
55.46234935571612
55.55456384781336
55.64598201223868
55.79311779086141
55.98943376320618
56.28780889581343
56.80589258917298
57.2590445330311
57.49243986458263
58.166001169104064
56.17311305785815
47.63067279261637
47.177423706108755
46.02602608105834
45.3509887608277
44.97602933656061
44.89187268094166
45.05028364426905
45.33288784473798
45.83073558098933
46.73598194875669
48.163231993883024
50.20579233402229
51.56467140340933
51.6426155324646
51.668598796461715
51.69458298706753
54.234428709228595
54.81625590142917
54.63411325630606
54.73819663654261
54.62119552542034
54.388315054543845
54.32203505367265
54.37005568323432
54.454216016299
54.495419731075344
54.552765979739675
54.58970912860678
54.66033810581017
54.742721741505406
54.90292611112404
55.34096488987738
56.22050788857588
56.55822866901575
56.17175945516743
58.39006455646869
47.77870626810816
49.12566972206687
48.590000737190415
48.46065934845817
48.433280089902226
48.52457166146974
48.5490558248684
48.269301583130826
47.87312932350507
47.764406760973415
48.17313843561509
49.3310262461367
51.26941370107424
51.48673598550063
51.61663320540717
51.72056809394991
49.24582193416631
51.39385576603979
52.03435180428452
52.549307233844246
53.11494063064748
53.52272253673675
53.74047621514218
54.21659356554181
54.58078055556364
54.765306745586315
54.863470598579084
54.92909320283102
54.963823866624985
54.924346036402476
54.727954935218754
54.864834401326114
55.86907330629017
55.383673149476444
52.80233095546489
62.43868938160114
48.09119822341989
50.66438110759808
51.244209585267
52.246118482585416
53.1429359516828
53.76355581482781
53.34965007279264
51.72678552441318
49.6670635573007
48.08952151465046
47.37316589985989
47.789257898736174
49.12557707594697
50.91327472786461
51.69458298706753
50.585233047136704
48.39781978739792
48.56120978864027
50.08629015440844
51.54551714620623
52.80554420309496
53.89710725296559
54.75757804209277
55.14175436246717
55.14723568257812
55.1770925449457
55.27444975661121
55.43219677634553
55.664510273316424
56.06714797396102
56.7534883038826
57.9919669797721
57.570212438650096
56.78420319873045
54.35237428488444
50.38063297496448
67.13284432676583
49.19304236108608
52.15820800585392
53.82408794176889
56.572774702301736
59.666175679129466
60.692634057521005
57.59985300568047
53.50800808510195
49.81897645369192
47.276526821716004
46.03628167188441
46.134448127294036
47.28300488462467
48.98023759003886
50.3910054071784
50.59653163126934
50.412707781226544
50.944751958124364
52.30955211920134
53.95232217880207
55.52380764880712
56.852108531950314
57.88116555605743
58.39889236510888
58.80571527427089
58.9445360233869
59.026167034934325
59.03162186926204
58.98709321949862
58.97261272488649
59.030388683109635
59.07555066781724
58.288239874412135
56.77249377363506
53.43839160392079
53.04180977032158
60.2045671416759
59.59425252448001
50.69618614042847
71.68552382234527
51.50703664258526
55.046771009553794
56.812481621679666
60.64130508752234
62.25235391566656
60.77501004153628
56.35052110892478
51.99460943171154
48.181155726166075
45.51800086297772
44.332129883949996
44.67174616448256
46.181226767854746
48.40792189011818
50.64365648271904
52.26441949168321
53.36690821805674
54.679945528356434
56.359421630686114
57.414654159963014
58.26952625925105
58.99336288093965
59.53517763724353
60.02451207445773
60.41018790038196
60.692634057521005
60.89783661110417
61.00036867085578
60.97474004193905
60.795258174071854
60.53861376034417
60.127416090273684
58.945594969971395
57.002895792290666
53.48800972082246
53.365979091756884
54.17823881760165
54.13944089172948
54.88386917364557
75.94514408280526
56.71357394506529
63.27153743357017
62.0093060526593
61.83058654211695
60.07441154340113
56.88635144022904
52.64338217575342
48.272763955053584
44.6824597327046
42.63377417389362
42.31911256103142
43.61846371417571
46.16722430182372
49.51555908709479
53.00388508347703
54.97236477080741
56.24649227927108
57.414654159963014
58.45062600332077
59.38047340903585
60.127416090273684
60.71829433094924
61.20529086833862
61.56343484192514
61.84439768621824
62.04848422444905
62.15044652330369
62.1759285460066
62.04848422444905
61.742274837150994
61.35885558916055
60.87219632246311
60.230278965269655
58.24446161447822
54.954640624181714
53.638542084543396
52.96862980657536
51.594712392634364
56.31890289328549
81.6642237003219
73.39623533716096
71.25188900767853
66.22138147762004
62.87607733448971
58.08586478328724
52.08322531093909
46.20035216460545
41.657678924255
39.146486992539934
38.86454582561818
40.61132553195681
43.94316371532471
48.399399396854754
53.280958382762044
55.46660080472266
57.2331047678382
58.6574852089571
59.74131960230287
60.58996495937596
61.3076796114668
61.86992017228719
62.303286804926266
62.63400577830742
62.86260637840372
63.040198094248574
63.11625188781156
63.14159548093104
63.065553183677814
62.88798791468936
62.63400577830742
62.20140712619864
61.742274837150994
61.15407827714986
60.53861376034417
59.92156761643499
58.70182423018614
57.95557408698232
54.696870752368206
50.199909896140205
88.65456298900021
84.23900010927167
77.53798135789754
68.77902131867718
56.74444883710725
44.65630084622777
35.959741108166625
31.325679864044133
30.25270179222285
32.07865694653101
36.20064892725559
42.07639552114062
49.000155513839786
53.02076228263211
56.272475731421196
58.57992732529262
60.050241897158536
61.07723686092545
61.84439768621824
62.456001204033
62.938739739303365
63.11267597722564
63.13922111103205
63.111682331994906
63.05877870395406
62.925480157424836
62.70965437884647
62.39464049864947
61.99172284414921
61.50397696308401
60.896213882459975
60.25185651576009
59.63024002187279
58.92000640154399
58.12162501663892
57.40992638482534
56.90261804084252
56.536133762127854
55.83371693303458
54.28946811443156
98.99470494219395
71.77042470408239
33.55925294224056
8.256076585071526
5.657016723306427
13.036919207338286
25.114307990438135
36.54444776561913
45.075279875689965
51.538691949114636
55.41458513896619
57.887734380061026
58.97327815864995
59.939269628523704
60.65525059511157
61.183335042179436
61.56240767896124
61.79701966065038
61.91132913231542
61.95993541385594
61.90235811508266
61.79253890870805
61.64674066746807
61.45449772445333
61.210900990450334
60.94568814909469
60.670792256291605
60.42947936072871
60.21470022058916
60.053826154599086
59.9527276918202
59.88483954080235
59.84893288641056
59.93250641461052
60.41150913054118
62.0735059991776
67.92357960794456
59.871668519051894
92.92745224698844
26.325343272851327
5.049125341826709
12.234074602270496
22.297252607664163
30.91160597971414
38.3148264882387
44.477006868039624
49.38416994829568
53.024473397709876
55.52793347141629
57.30046913861428
58.55935114925044
59.479468817663694
60.11153871171189
60.554216944811664
60.86064400876316
61.06431379280465
61.20251958865333
61.26049128992078
61.295290871490145
61.29570232175373
61.28275979103262
61.25467084244297
61.18603053756172
61.10786008428798
61.057895784272546
61.003933524166456
61.026694179380776
61.17162139241299
61.51380506845758
62.07715165964491
62.71830072929337
63.30410542748458
64.08924430419621
67.26251014636051
61.96288341819118
66.59114395136768
19.883474552425668
25.223598784473793
20.588509014256005
8.209214786483983
22.23961145768918
31.26235724191818
37.5842788670699
42.77893427637936
47.11045161889513
50.704906217630004
53.61445431119214
55.84740161566062
57.48949687725177
58.63074695412702
59.37940636524031
59.881141919558644
60.161605147471235
60.27774409377427
60.33844932008533
60.31555961495065
60.31042591886805
60.281502237869745
60.288283930263354
60.29144495258313
60.31442192143425
60.35827214194161
60.427768521249405
60.5335797160436
60.693498074725355
60.92623285356319
61.26610321631279
61.83937033534957
62.839934186737075
64.62502023817379
66.15176195895604
66.37477303427335
66.64676671593085
62.79204827885077
63.057588209038926
57.87282136741641
)
;

boundaryField
{
    ".*"
    {
        type            zeroGradient;
    }
}


// ************************************************************************* //
