/*--------------------------------*- C++ -*----------------------------------*\
  =========                 |
  \\      /  F ield         | OpenFOAM: The Open Source CFD Toolbox
   \\    /   O peration     | Website:  https://openfoam.org
    \\  /    A nd           | Version:  6
     \\/     M anipulation  |
\*---------------------------------------------------------------------------*/
FoamFile
{
    version     2.0;
    format      ascii;
    class       volScalarField;
    location    "1700";
    object      alphat;
}
// * * * * * * * * * * * * * * * * * * * * * * * * * * * * * * * * * * * * * //

dimensions      [1 -1 -1 0 0 0 0];

internalField   nonuniform List<scalar> 
459
(
0.00133044
0.00145929
0.00148876
0.00156268
0.00163205
0.00169803
0.00176417
0.00182373
0.001863
0.0018751
0.00185431
0.00179703
0.00170176
0.00157326
0.00142708
0.000599404
0.000721733
0.000813431
0.000813985
0.000787346
0.000750837
0.0007034
0.000656137
0.000613347
0.000575491
0.000542083
0.0005125
0.000486215
0.000462708
0.000441131
0.000420437
0.000399212
0.000386158
0.000354084
0.00180628
0.00454464
0.00440283
0.0051413
0.00587125
0.00658729
0.00718621
0.00766241
0.00808022
0.00840602
0.0085993
0.00861887
0.00840302
0.00779294
0.0061319
0.00146707
0.000881045
0.000633028
0.00134146
0.00188013
0.00227762
0.00249402
0.0024844
0.00196516
0.00168472
0.00148676
0.00133607
0.001217
0.0011205
0.0010386
0.000962138
0.000887371
0.000820319
0.000760871
0.000906623
0.000469146
0.00219775
0.00620822
0.0055007
0.00686528
0.00756045
0.00807905
0.00847981
0.00882568
0.00919081
0.00955668
0.0098768
0.010098
0.0101596
0.00994945
0.00917189
0.00692976
0.00151674
0.00121413
0.00178883
0.00233255
0.00283602
0.00318372
0.00309901
0.00100095
0.000881141
0.000784891
0.000707362
0.00064435
0.0005926
0.000549759
0.000514354
0.000485783
0.000524352
0.000606991
0.00103145
0.000548502
0.00256965
0.00787872
0.00556299
0.0072661
0.00785377
0.00807531
0.00824283
0.00846203
0.00878275
0.00918205
0.00959847
0.00996502
0.0102105
0.0102394
0.00999608
0.00911072
0.00610391
0.00178493
0.00221269
0.00287725
0.00355057
0.00409945
0.00443414
0.00414469
0.00112719
0.00102245
0.000946785
0.000888375
0.000838329
0.000793508
0.000750396
0.000705438
0.000653875
0.000613955
0.000636664
0.00121768
0.000607109
0.00294649
0.009998
0.00614687
0.00706925
0.00779797
0.00786939
0.0078479
0.00801486
0.0083115
0.00873714
0.00921012
0.00963869
0.00991691
0.00998663
0.0098465
0.00945672
0.00858241
0.00715219
0.00666231
0.00652323
0.00649351
0.00646763
0.00638365
0.00609731
0.00508393
0.00458816
0.00429328
0.0040643
0.00382872
0.00349431
0.00306881
0.00257046
0.00203018
0.00150005
0.00111263
0.00118296
0.000798271
0.000743739
0.000888164
0.000994804
0.0033444
0.0122984
0.00839207
0.00722264
0.00775713
0.00784859
0.00781114
0.00791252
0.00814601
0.00854505
0.00905229
0.00952949
0.00982696
0.00986024
0.00965279
0.0093146
0.00895684
0.00863457
0.00846683
0.00832144
0.00812271
0.00787291
0.00757965
0.00721733
0.00671418
0.00627354
0.00589265
0.00553776
0.00518553
0.00480304
0.00433863
0.00377777
0.003125
0.00242297
0.00182112
0.00135614
0.00107529
0.000950215
0.0013697
0.0010436
0.00369691
0.0138532
0.0115266
0.0092706
0.00887743
0.00851746
0.0081712
0.00804614
0.00821053
0.00864336
0.00922236
0.00975221
0.0100447
0.0100054
0.00968888
0.00929956
0.00908251
0.00909899
0.00914835
0.00903121
0.00873034
0.00831238
0.00782647
0.0072971
0.00675019
0.0062556
0.00581669
0.00541945
0.00506062
0.0047456
0.00447309
0.00409071
0.00357731
0.00296807
0.00241094
0.00190446
0.00157772
0.0014925
0.00151638
0.00119082
0.00375487
0.0120494
0.0109037
0.0100504
0.00923834
0.00845689
0.00800074
0.00798242
0.00837602
0.00905078
0.009791
0.0103482
0.0105379
0.0103157
0.00981927
0.00936717
0.00924312
0.00935168
0.0092792
0.00892014
0.00835954
0.00768898
0.00698384
0.00631385
0.005733
0.00525753
0.00486813
0.00455006
0.00430207
0.00412941
0.00403581
0.00398138
0.00372983
0.00334383
0.00302966
0.00290414
0.00306731
0.00357278
0.00457721
0.00180011
0.0036448
0.00430018
0.00473375
0.00484932
0.00511951
0.00570832
0.00662615
0.0078014
0.00907352
0.0102259
0.011033
0.0113175
0.0110555
0.0104019
0.00971104
0.00933419
0.00913527
0.00889309
0.0084345
0.00775574
0.00694803
0.00612406
0.00538203
0.00477867
0.00431592
0.00396177
0.00368204
0.00345492
0.00326675
0.00310681
0.00296624
0.00284524
0.00275547
0.00269946
0.00269515
0.00272942
0.00272787
0.00262503
0.00244002
0.0016698
0.00171471
0.00439265
0.00797641
0.0102831
0.011788
0.0126934
0.0130509
0.012942
0.0124595
0.0117041
0.0106625
0.0096481
0.00891722
0.00844298
0.00796548
0.0073474
0.00659636
0.00579346
0.0050283
0.00436959
0.00385616
0.00348351
0.00321642
0.00302105
0.00287527
0.00276715
0.00269108
0.00264578
0.00263379
0.00265249
0.00269134
0.00274857
0.00281807
0.00287812
0.0029001
0.00288476
0.00255628
0.0013773
0.0026132
0.00814297
0.0110978
0.0118537
0.0120589
0.0118484
0.0112604
0.0104372
0.00951669
0.00862581
0.00779616
0.0071221
0.00658389
0.00605163
0.00546308
0.0048525
0.00427251
0.00376645
0.00335621
0.00304102
0.00280146
0.0026309
0.00251516
0.00244331
0.0024086
0.00240562
0.0024279
0.00247269
0.00254444
0.00263839
0.00275084
0.00287512
0.00299653
0.00309825
0.00317983
0.00319227
0.00220635
0.00142168
0.00231264
0.0024542
0.00255576
0.0027366
0.00261956
0.0025164
0.00243031
0.0023067
0.00214144
0.00194437
0.00172637
0.00150751
0.0013143
0.00116096
0.00104631
0.00096173
0.000898651
0.000851312
0.00081674
0.000793501
0.000780463
0.000776508
0.000780789
0.000791139
0.000806908
0.000827853
0.000854021
0.000885766
0.000923893
0.00096911
0.00102113
0.00108047
0.00114757
0.00122289
0.00130611
0.00140152
0.0014275
0.0012994
0.00121096
0.00137485
)
;

boundaryField
{
    floor
    {
        type            compressible::alphatWallFunction;
        Prt             0.85;
        value           nonuniform List<scalar> 
29
(
0.000201111
8.42526e-05
0.000102353
0.000115676
0.000115756
0.000111906
0.000106603
9.9666e-05
9.2698e-05
8.63368e-05
8.06636e-05
7.56186e-05
7.11192e-05
6.70939e-05
6.34709e-05
6.01248e-05
5.6896e-05
5.35633e-05
5.15025e-05
4.64002e-05
4.63995e-05
6.44663e-05
7.65923e-05
8.54069e-05
0.000201109
8.42516e-05
8.92686e-05
0.000172063
0.00024888
)
;
    }
    ceiling
    {
        type            compressible::alphatWallFunction;
        Prt             0.85;
        value           nonuniform List<scalar> 
43
(
0.000317337
0.000335429
0.000348344
0.000371364
0.000356645
0.000343585
0.000332637
0.000316834
0.000295557
0.000269946
0.000241282
0.000212095
0.000185935
0.000164862
0.000148898
0.000136992
0.000128033
0.00012126
0.000116286
0.000112929
0.00011104
0.000110466
0.000111087
0.000112587
0.000114867
0.000117888
0.00012165
0.000126194
0.000131628
0.000138037
0.000145367
0.000153677
0.000163011
0.000173414
0.000184823
0.000197802
0.000201319
0.000183907
0.000171777
0.000194195
0.000484276
0.000563733
0.000355378
)
;
    }
    sWall
    {
        type            compressible::alphatWallFunction;
        Prt             0.85;
        value           uniform 0.000316066;
    }
    nWall
    {
        type            compressible::alphatWallFunction;
        Prt             0.85;
        value           nonuniform List<scalar> 6(0.000141315 0.000148166 0.000168627 0.000194174 0.000200184 0.000193847);
    }
    sideWalls
    {
        type            empty;
    }
    glass1
    {
        type            compressible::alphatWallFunction;
        Prt             0.85;
        value           nonuniform List<scalar> 9(0.000183243 0.000246066 0.000296523 0.000343662 0.000390764 0.000439869 0.000482922 0.000490105 0.000476988);
    }
    glass2
    {
        type            compressible::alphatWallFunction;
        Prt             0.85;
        value           nonuniform List<scalar> 2(0.000248971 0.000231898);
    }
    sun
    {
        type            compressible::alphatWallFunction;
        Prt             0.85;
        value           nonuniform List<scalar> 
14
(
0.000188015
0.000205465
0.000209435
0.000219356
0.000228619
0.000237389
0.000246141
0.000253994
0.000259154
0.000260742
0.000258013
0.000250475
0.00023788
0.000220768
)
;
    }
    heatsource1
    {
        type            compressible::alphatWallFunction;
        Prt             0.85;
        value           nonuniform List<scalar> 3(0.000105721 0.00012656 0.000141688);
    }
    heatsource2
    {
        type            compressible::alphatWallFunction;
        Prt             0.85;
        value           nonuniform List<scalar> 4(0.000206686 0.000125543 0.000125542 0.000213368);
    }
    Table_master
    {
        type            compressible::alphatWallFunction;
        Prt             0.85;
        value           nonuniform List<scalar> 9(0.000142551 0.000125554 0.000111702 0.000100396 9.10967e-05 8.33761e-05 7.69215e-05 7.15401e-05 6.71634e-05);
    }
    Table_slave
    {
        type            compressible::alphatWallFunction;
        Prt             0.85;
        value           nonuniform List<scalar> 9(0.000160208 0.000145578 0.000134901 0.000126591 0.000119419 0.000112953 0.000106692 0.000100116 9.25114e-05);
    }
    inlet
    {
        type            fixedValue;
        value           uniform 1.94e-05;
    }
    outlet
    {
        type            zeroGradient;
    }
}


// ************************************************************************* //
