/*--------------------------------*- C++ -*----------------------------------*\
  =========                 |
  \\      /  F ield         | OpenFOAM: The Open Source CFD Toolbox
   \\    /   O peration     | Website:  https://openfoam.org
    \\  /    A nd           | Version:  6
     \\/     M anipulation  |
\*---------------------------------------------------------------------------*/
FoamFile
{
    version     2.0;
    format      ascii;
    class       volScalarField;
    location    "1700";
    object      k;
}
// * * * * * * * * * * * * * * * * * * * * * * * * * * * * * * * * * * * * * //

dimensions      [0 2 -2 0 0 0 0];

internalField   nonuniform List<scalar> 
459
(
0.00255202
0.00305889
0.00317625
0.003497
0.00381146
0.00412158
0.00444204
0.00474995
0.0049645
0.00504241
0.00494845
0.00466854
0.00421452
0.00364126
0.00304899
0.000521446
0.000763776
0.000963461
0.000955203
0.000891976
0.000811219
0.000714385
0.000624279
0.000547693
0.00048385
0.00043058
0.000385832
0.000348128
0.000315899
0.000287573
0.000261538
0.00023596
0.00022098
0.000185978
0.00473597
0.00891636
0.00516203
0.00549997
0.00603866
0.00666087
0.00733984
0.0080334
0.00864659
0.00904526
0.00912058
0.00882055
0.00813243
0.00708686
0.00569378
0.00321851
0.00103203
0.00059406
0.00132011
0.00160085
0.00167592
0.00161467
0.0014746
0.00125164
0.00104634
0.000877458
0.000742233
0.000634096
0.000547074
0.000475867
0.000416612
0.000368161
0.000334012
0.000313306
0.000553941
0.000328139
0.00704561
0.0162285
0.00646882
0.00626979
0.00677875
0.00747918
0.00830349
0.00917343
0.00992879
0.0104303
0.0105898
0.0103799
0.00979273
0.00889806
0.00779694
0.00645353
0.00333555
0.0022519
0.00230416
0.00227493
0.00219495
0.00205798
0.00186163
0.00143895
0.0011215
0.000895042
0.000731001
0.000609714
0.000518169
0.000447917
0.000393608
0.000352252
0.000319176
0.000315265
0.000815824
0.000448206
0.00967249
0.0262504
0.00824455
0.00660957
0.00697297
0.00775957
0.00880419
0.00986572
0.0106788
0.0111866
0.0113552
0.0111761
0.0106079
0.00973249
0.00874358
0.00773987
0.00633733
0.00465227
0.00391097
0.00345603
0.00312826
0.00283992
0.00256873
0.00229537
0.0018186
0.00150906
0.00130624
0.00116088
0.00104262
0.000939511
0.000845281
0.000751711
0.000650064
0.000482921
0.00040091
0.00115956
0.000549063
0.0127619
0.0393338
0.0122386
0.00735386
0.00733421
0.00829489
0.00981618
0.0109954
0.0116986
0.0120916
0.0121902
0.0119477
0.0113015
0.0102909
0.00906853
0.00781413
0.00664059
0.00571356
0.00496063
0.00433985
0.00381508
0.00336662
0.00298455
0.00266669
0.0024012
0.00220799
0.00206038
0.00192646
0.00178397
0.00161427
0.00142353
0.00122054
0.00101244
0.000775425
0.000586114
0.000961213
0.00066778
0.000816348
0.00116453
0.00146032
0.016486
0.0529918
0.0214153
0.010674
0.00952657
0.0107768
0.0124239
0.0131056
0.0133618
0.0134662
0.0134289
0.0130863
0.0122888
0.0110285
0.00947309
0.00790229
0.00658947
0.00568322
0.00506513
0.00452369
0.00399847
0.00352131
0.00312135
0.00281748
0.00261437
0.00248966
0.00239226
0.00228906
0.00216074
0.0019897
0.00176847
0.00152387
0.00127151
0.00101956
0.000826036
0.000870225
0.000782998
0.000807931
0.00197299
0.0016065
0.0201945
0.0613656
0.035708
0.0216133
0.0182116
0.0178857
0.0170986
0.0163053
0.0157619
0.015479
0.0152389
0.01471
0.0136437
0.0120143
0.0100366
0.00809674
0.00656365
0.00556407
0.00491374
0.00436267
0.00383506
0.00337074
0.00300764
0.00276177
0.00262567
0.00256209
0.00252341
0.0024845
0.0024309
0.00234555
0.00218627
0.00196294
0.00170708
0.00144614
0.001262
0.00120647
0.00124741
0.00158898
0.00249637
0.00213513
0.0208727
0.0587428
0.0423259
0.0344487
0.0293265
0.0247867
0.0214661
0.0194556
0.0184819
0.0180909
0.0177312
0.0168876
0.0152977
0.0130312
0.0104211
0.00801155
0.00624868
0.00514127
0.00443017
0.00386268
0.00337198
0.00298277
0.00271032
0.00255023
0.00248213
0.00247513
0.00250322
0.00255671
0.00263498
0.00273836
0.0028598
0.00290666
0.00286222
0.00283998
0.00294673
0.00358302
0.00517678
0.00812821
0.0156454
0.00507527
0.0197082
0.0274027
0.0257928
0.0228118
0.0207065
0.019807
0.0198827
0.0205838
0.0214285
0.0218484
0.021319
0.0195254
0.0166529
0.0131975
0.00966681
0.00689699
0.00529172
0.00432839
0.00366961
0.00315765
0.0027575
0.00247109
0.00229277
0.00220479
0.00218408
0.00221007
0.00227087
0.00236383
0.0024912
0.0026567
0.00286395
0.00312301
0.00345575
0.00393374
0.00458496
0.00537843
0.00611774
0.00652814
0.00664479
0.00429813
0.00779853
0.0164403
0.0249705
0.0291846
0.0312845
0.0316767
0.0302754
0.027298
0.0231315
0.018007
0.0133944
0.00972637
0.00702951
0.00526125
0.004179
0.00347345
0.00296604
0.00257558
0.00228004
0.00207841
0.001958
0.00189922
0.00188519
0.00190525
0.00195517
0.00203624
0.00215459
0.00232153
0.00255493
0.00287048
0.00327363
0.00377389
0.00434431
0.00487677
0.00517005
0.00504979
0.00443227
0.00279256
0.0095122
0.025111
0.029615
0.0279815
0.0263897
0.0240752
0.0209488
0.0173941
0.013789
0.0104456
0.00776633
0.00583963
0.00455461
0.00372906
0.00318355
0.00279077
0.00248526
0.00224134
0.00204974
0.00190674
0.00181125
0.00175689
0.00173972
0.00175918
0.00181708
0.00191648
0.00206111
0.00225623
0.00251696
0.00285335
0.00327699
0.00378975
0.00436071
0.00493074
0.00527078
0.00555991
0.00461666
0.00286213
0.00763268
0.0085858
0.00930789
0.0108294
0.0100174
0.00927697
0.00869902
0.00789001
0.00685335
0.00570047
0.00453588
0.00348223
0.00264737
0.00205394
0.00165448
0.00138744
0.00120631
0.00108257
0.00100051
0.000951523
0.000930097
0.000929986
0.000945577
0.000975017
0.00101762
0.00107364
0.00114416
0.00123134
0.00133901
0.00147284
0.00163333
0.0018254
0.0020544
0.00232692
0.00264829
0.00310801
0.00324467
0.00308602
0.0026857
0.00228579
)
;

boundaryField
{
    floor
    {
        type            kqRWallFunction;
        value           nonuniform List<scalar> 
29
(
0.00304899
0.000521446
0.000763776
0.000963461
0.000955203
0.000891976
0.000811219
0.000714385
0.000624279
0.000547693
0.00048385
0.00043058
0.000385832
0.000348128
0.000315899
0.000287573
0.000261538
0.00023596
0.00022098
0.000185978
0.000185978
0.000328139
0.000448206
0.000549063
0.00304899
0.000521446
0.00059406
0.0022519
0.00465227
)
;
    }
    ceiling
    {
        type            kqRWallFunction;
        value           nonuniform List<scalar> 
43
(
0.00763268
0.0085858
0.00930789
0.0108294
0.0100174
0.00927697
0.00869902
0.00789001
0.00685335
0.00570047
0.00453588
0.00348223
0.00264737
0.00205394
0.00165448
0.00138744
0.00120631
0.00108257
0.00100051
0.000951523
0.000930097
0.000929986
0.000945577
0.000975017
0.00101762
0.00107364
0.00114416
0.00123134
0.00133901
0.00147284
0.00163333
0.0018254
0.0020544
0.00232692
0.00264829
0.00310801
0.00324467
0.00308602
0.0026857
0.00228579
0.0197082
0.0274027
0.0095122
)
;
    }
    sWall
    {
        type            kqRWallFunction;
        value           uniform 0.00763268;
    }
    nWall
    {
        type            kqRWallFunction;
        value           nonuniform List<scalar> 6(0.00146032 0.0016065 0.00213513 0.00279256 0.00286213 0.00228579);
    }
    sideWalls
    {
        type            empty;
    }
    glass1
    {
        type            kqRWallFunction;
        value           nonuniform List<scalar> 9(0.00255202 0.00473597 0.00704561 0.00967249 0.0127619 0.016486 0.0201945 0.0208727 0.0197082);
    }
    glass2
    {
        type            kqRWallFunction;
        value           nonuniform List<scalar> 2(0.00507527 0.00429813);
    }
    sun
    {
        type            kqRWallFunction;
        value           nonuniform List<scalar> 
14
(
0.00255202
0.00305889
0.00317625
0.003497
0.00381146
0.00412158
0.00444204
0.00474995
0.0049645
0.00504241
0.00494845
0.00466854
0.00421452
0.00364126
)
;
    }
    heatsource1
    {
        type            kqRWallFunction;
        value           nonuniform List<scalar> 3(0.000816348 0.00116453 0.00146032);
    }
    heatsource2
    {
        type            kqRWallFunction;
        value           nonuniform List<scalar> 4(0.00321851 0.00103203 0.00103203 0.00333555);
    }
    Table_master
    {
        type            kqRWallFunction;
        value           nonuniform List<scalar> 9(0.00143895 0.0011215 0.000895042 0.000731001 0.000609714 0.000518169 0.000447917 0.000393608 0.000352252);
    }
    Table_slave
    {
        type            kqRWallFunction;
        value           nonuniform List<scalar> 9(0.0018186 0.00150906 0.00130624 0.00116088 0.00104262 0.000939511 0.000845281 0.000751711 0.000650064);
    }
    inlet
    {
        type            turbulentIntensityKineticEnergyInlet;
        intensity       0.05;
        value           uniform 0.0003375;
    }
    outlet
    {
        type            zeroGradient;
    }
}


// ************************************************************************* //
