// -*- C++ -*-
// File generated by PyFoam - sorry for the ugliness

FoamFile
{
 version 2.0;
 format ascii;
 class volScalarField;
 location "1700";
 object T;
}

dimensions [ 0 0 0 1 0 0 0 ];

internalField nonuniform List<scalar> 459
(
  302.684
  302.404
  302.389
  302.385
  302.381
  302.376
  302.372
  302.365
  302.357
  302.347
  302.336
  302.328
  302.323
  302.324
  302.331
  302.461
  302.435
  302.425
  302.429
  302.434
  302.439
  302.444
  302.449
  302.453
  302.458
  302.463
  302.467
  302.471
  302.476
  302.48
  302.485
  302.49
  302.497
  302.521
  302.87
  302.445
  302.417
  302.418
  302.419
  302.419
  302.416
  302.407
  302.391
  302.369
  302.345
  302.325
  302.312
  302.307
  302.308
  302.307
  302.302
  302.463
  302.417
  302.409
  302.413
  302.419
  302.425
  302.427
  302.429
  302.431
  302.432
  302.433
  302.434
  302.436
  302.437
  302.44
  302.444
  302.451
  302.462
  302.502
  303.064
  302.498
  302.451
  302.459
  302.471
  302.48
  302.483
  302.474
  302.447
  302.407
  302.365
  302.33
  302.309
  302.301
  302.303
  302.307
  302.309
  302.392
  302.39
  302.399
  302.413
  302.426
  302.436
  302.436
  302.435
  302.435
  302.434
  302.434
  302.434
  302.434
  302.434
  302.434
  302.437
  302.442
  302.452
  302.494
  303.261
  302.565
  302.489
  302.502
  302.528
  302.553
  302.569
  302.559
  302.516
  302.451
  302.385
  302.334
  302.304
  302.295
  302.299
  302.309
  302.319
  302.335
  302.355
  302.381
  302.409
  302.434
  302.455
  302.471
  302.484
  302.496
  302.506
  302.514
  302.521
  302.526
  302.531
  302.533
  302.534
  302.501
  302.474
  302.462
  302.496
  303.453
  302.652
  302.537
  302.544
  302.583
  302.626
  302.66
  302.644
  302.579
  302.482
  302.395
  302.33
  302.295
  302.286
  302.297
  302.315
  302.336
  302.361
  302.389
  302.42
  302.452
  302.481
  302.505
  302.524
  302.541
  302.554
  302.565
  302.574
  302.579
  302.58
  302.578
  302.573
  302.564
  302.539
  302.505
  302.478
  302.493
  302.588
  302.633
  302.64
  303.626
  302.765
  302.622
  302.609
  302.648
  302.706
  302.736
  302.694
  302.601
  302.487
  302.384
  302.311
  302.276
  302.274
  302.296
  302.329
  302.364
  302.4
  302.438
  302.475
  302.509
  302.539
  302.562
  302.581
  302.596
  302.608
  302.616
  302.622
  302.624
  302.621
  302.614
  302.604
  302.589
  302.566
  302.533
  302.5
  302.496
  302.536
  302.555
  302.595
  303.788
  302.946
  302.807
  302.781
  302.797
  302.834
  302.8
  302.702
  302.568
  302.433
  302.325
  302.261
  302.242
  302.261
  302.304
  302.358
  302.411
  302.46
  302.504
  302.542
  302.575
  302.601
  302.621
  302.636
  302.647
  302.655
  302.66
  302.662
  302.661
  302.655
  302.644
  302.629
  302.612
  302.589
  302.559
  302.528
  302.513
  302.524
  302.537
  302.571
  304.021
  303.395
  303.245
  303.163
  303.097
  302.974
  302.798
  302.6
  302.416
  302.277
  302.196
  302.175
  302.202
  302.261
  302.338
  302.417
  302.485
  302.54
  302.582
  302.614
  302.639
  302.658
  302.672
  302.682
  302.689
  302.693
  302.694
  302.693
  302.689
  302.682
  302.671
  302.655
  302.639
  302.619
  302.597
  302.574
  302.567
  302.587
  302.613
  302.766
  304.356
  304.059
  303.762
  303.452
  303.097
  302.7
  302.363
  302.123
  301.993
  301.96
  302.001
  302.093
  302.203
  302.317
  302.429
  302.522
  302.582
  302.623
  302.653
  302.676
  302.693
  302.705
  302.713
  302.718
  302.721
  302.722
  302.72
  302.718
  302.714
  302.711
  302.708
  302.708
  302.711
  302.72
  302.739
  302.769
  302.81
  302.851
  302.877
  302.94
  293.383
  295.331
  297.264
  298.712
  299.766
  300.563
  301.171
  301.628
  301.968
  302.228
  302.389
  302.497
  302.575
  302.63
  302.667
  302.693
  302.711
  302.725
  302.734
  302.74
  302.744
  302.747
  302.748
  302.748
  302.748
  302.748
  302.749
  302.75
  302.751
  302.754
  302.76
  302.771
  302.788
  302.813
  302.843
  302.871
  302.892
  302.914
  294.567
  297.008
  299.183
  300.285
  300.986
  301.48
  301.838
  302.108
  302.313
  302.463
  302.564
  302.631
  302.677
  302.708
  302.729
  302.743
  302.753
  302.759
  302.763
  302.766
  302.768
  302.769
  302.77
  302.771
  302.771
  302.772
  302.773
  302.775
  302.776
  302.779
  302.784
  302.791
  302.804
  302.821
  302.841
  302.864
  302.862
  302.894
  298.261
  298.185
  298.179
  300.491
  301.418
  301.819
  302.065
  302.252
  302.398
  302.513
  302.601
  302.666
  302.712
  302.743
  302.764
  302.778
  302.787
  302.793
  302.797
  302.799
  302.8
  302.8
  302.8
  302.799
  302.799
  302.798
  302.798
  302.797
  302.797
  302.796
  302.796
  302.797
  302.799
  302.802
  302.808
  302.821
  302.832
  302.84
  302.843
  302.883
)
;

boundaryField
{
  floor
  {
    type wallHeatTransfer;
    Tinf uniform 305.2;
    alphaWall uniform 0.24;
    value nonuniform List<scalar> 29
(
  302.603
  302.953
  302.871
  302.829
  302.833
  302.847
  302.865
  302.889
  302.914
  302.939
  302.963
  302.986
  303.009
  303.031
  303.052
  303.073
  303.094
  303.117
  303.135
  303.187
  303.187
  303.066
  303.005
  302.973
  302.603
  302.953
  302.934
  302.691
  302.565
)
;
  }
  ceiling
  {
    type wallHeatTransfer;
    Tinf uniform 303.2;
    alphaWall uniform 0.24;
    value nonuniform List<scalar> 43
(
  298.583
  298.497
  298.482
  300.645
  301.523
  301.903
  302.136
  302.313
  302.453
  302.564
  302.65
  302.714
  302.761
  302.793
  302.816
  302.831
  302.842
  302.85
  302.854
  302.857
  302.858
  302.859
  302.858
  302.857
  302.856
  302.854
  302.853
  302.851
  302.849
  302.847
  302.845
  302.844
  302.843
  302.844
  302.847
  302.856
  302.866
  302.874
  302.879
  302.916
  304.304
  304.026
  295.077
)
;
  }
  sWall
  {
    type wallHeatTransfer;
    Tinf uniform 315.2;
    alphaWall uniform 0.36;
    value uniform 299.873;
  }
  nWall
  {
    type wallHeatTransfer;
    Tinf uniform 307.2;
    alphaWall uniform 0.36;
    value nonuniform List<scalar> 6
(
  303.446
  303.383
  303.287
  303.516
  303.494
  303.535
)
;
  }
  sideWalls
  {
    type empty;
  }
  glass1
  {
    type wallHeatTransfer;
    Tinf uniform 315.2;
    alphaWall uniform 4.3;
    value nonuniform List<scalar> 9
(
  311.125
  310.438
  310.01
  309.688
  309.422
  309.183
  309.014
  309.101
  309.354
)
;
  }
  glass2
  {
    type wallHeatTransfer;
    Tinf uniform 307.2;
    alphaWall uniform 4.3;
    value nonuniform List<scalar> 2
(
  305.441
  305.583
)
;
  }
  sun
  {
    type wallHeatTransfer;
    Tinf uniform 305.2;
    alphaWall uniform 0.24;
    value nonuniform List<scalar> 14
(
  302.94
  302.668
  302.651
  302.638
  302.626
  302.614
  302.603
  302.592
  302.58
  302.569
  302.561
  302.558
  302.564
  302.578
)
;
  }
  heatsource1
  {
    type fixedGradient;
    gradient uniform 0;
  }
  heatsource2
  {
    type fixedGradient;
    gradient uniform 0;
  }
  Table_master
  {
    type zeroGradient;
  }
  Table_slave
  {
    type zeroGradient;
  }
  inlet
  {
    type fixedValue;
    value uniform 290.15;
  }
  outlet
  {
    type zeroGradient;
  }
} 	// ************************************************************************* //

