/*--------------------------------*- C++ -*----------------------------------*=========                 |
  \      /  F ield         | OpenFOAM: The Open Source CFD Toolbox
   \    /   O peration     | Website:  https://openfoam.org
    \  /    A nd           | Version:  6
     \/     M anipulation  |
\*---------------------------------------------------------------------------*/
FoamFile
{
    version     2.0;
    format      ascii;
    class       volScalarField;
    location    "1800";
    object      PMV;
}
// * * * * * * * * * * * * * * * * * * * * * * * * * * * * * * * * * * * * * //

dimensions      [0 0 0 0 0 0 0];

internalField   nonuniform List<scalar> 
459
(
1.6443221050319237
1.4271821563836733
1.4012691250808447
1.377688312359013
1.362231430185136
1.353489266375821
1.351110301063878
1.3549411964497944
1.3653583261140607
1.3834675402564545
1.4102111474812897
1.4476373242435983
1.4963242890954538
1.528702351634372
1.5334797648898846
1.5993896267631282
1.586496550539591
1.581721003345322
1.583631243627901
1.586496550539591
1.588884256991581
1.5917119050122956
1.587291077479096
1.586418681733242
1.587587119311228
1.5888858260165355
1.5906281212823985
1.5933853620295013
1.596572957235637
1.6016301827349406
1.611186277854509
1.618010575684107
1.621829900502357
1.6342418459264023
1.6054553801878773
1.4487050825773249
1.439971977332566
1.4190306474561087
1.4063063348751832
1.3990375241882764
1.3975574577952607
1.3994887546963444
1.4046385232495728
1.4136914027174647
1.4292128917577036
1.45472714184374
1.4906657226723126
1.5196248332619313
1.5210581630173357
1.5210581630173357
1.5205803879800581
1.5636362065700404
1.576945278638842
1.5731245723011855
1.5750349394652199
1.5722550821499788
1.5682354652466974
1.5666870819669634
1.567633488754867
1.5687259864475225
1.5694950432921946
1.5701002392951973
1.570793224487299
1.57163607600697
1.5731548461988893
1.5756330343729603
1.583677179985509
1.5989121291680117
1.604641978174674
1.5970040161538424
1.647298992908429
1.4515019310214248
1.4760162140685147
1.4660281895931153
1.4635300749934383
1.4633127249430955
1.4650994424776382
1.4652196344774062
1.4607265380933785
1.4535554399242436
1.4511451093770384
1.4577108836357702
1.477247524366757
1.5104902277241217
1.518191489601144
1.5205803879800581
1.522013708439712
1.473855867618214
1.514352547323894
1.526616737981919
1.535751271396955
1.5461362422401816
1.5532319643000023
1.5567507766212505
1.5651208625722655
1.5710153864624847
1.5742250214554185
1.5754609942428945
1.576584832763539
1.5766842056264343
1.5759018125266762
1.5722685432617352
1.5743381081565806
1.592457077468419
1.5835115464508158
1.5350092008583947
1.7228550252570614
1.4568763778260887
1.5038914353717336
1.514748112126997
1.5323833853771163
1.5485562427844914
1.5606701211001839
1.5546843330819422
1.5269184088091468
1.4900193790461085
1.4600019469482186
1.445593243727764
1.4507871835885784
1.4733096604817746
1.5059488937934316
1.522013708439712
1.5048019295838788
1.46455976922033
1.4650787850563305
1.4929203199450938
1.5194651484560002
1.5415254291024985
1.5607847484265118
1.5756391822573539
1.5818371764228223
1.5809992574365894
1.5815096980024355
1.5826736100821042
1.584908039198596
1.5889690169655826
1.5962020391707585
1.6082127357864973
1.630421334704809
1.6232621154439781
1.608755575915701
1.564074701407041
1.4904224581688867
1.8124329517970208
1.477395868414886
1.5314100578011072
1.5609307311342995
1.6104035456310786
1.6657988696858224
1.6876928939622817
1.636874087989444
1.5636717606456476
1.4952535321730647
1.4468254201343242
1.4218007252966622
1.4207149557747067
1.4398890121932013
1.4702534538067686
1.4969861705400138
1.5026296560258687
1.4991705652602556
1.508237673807287
1.5329768749635038
1.5627915018518403
1.5906153959657472
1.6142795955623248
1.6304229271492603
1.6394926515378834
1.6471297526177122
1.6490539356031535
1.649834766233861
1.6496933512161274
1.6481926045677027
1.647785900548919
1.6487874325477998
1.649624614610518
1.635196568286829
1.6079479754330488
1.546783851169578
1.5399035567601402
1.6700378894101915
1.6580704168363778
1.4943278519299485
1.9023277808579622
1.5201648869761568
1.5844465594901733
1.6151414096217005
1.6848301235627354
1.7139311781740876
1.6958345534950063
1.6151888321934729
1.53664182333819
1.4658797516352757
1.4143412203553825
1.3901167952648223
1.3931364602685112
1.4187416074839911
1.4583169095690518
1.4995356206093433
1.5296796780705528
1.5508591526996087
1.5748066531746507
1.6054400869288334
1.622784712401183
1.63806063762265
1.6504708206292962
1.6600161722938638
1.6681290630265475
1.6748098053905398
1.6800586634835615
1.6838758491094206
1.6853072574847012
1.6848301235627354
1.6814901245208609
1.6762413381732186
1.6690834804867407
1.6467608256659492
1.6115688266289356
1.547600604829802
1.5451804725435188
1.559538016156845
1.5582739837553385
1.5713022731981467
1.9914542589484956
1.6157790338025122
1.7360143318516061
1.7112838478018697
1.7076867245328835
1.679101677522071
1.6229203477413858
1.5481114097733266
1.4684930905856044
1.4012069272999939
1.3594644328909669
1.3500242502594901
1.3713958908911037
1.4161252982374253
1.4757163000701152
1.5388057629009408
1.5774228590450374
1.6008221084756973
1.6223073074199659
1.6409246473852002
1.6571526540295713
1.670515090665402
1.6810129730278618
1.68960136325706
1.695803641859449
1.7005743665137982
1.7043907825337496
1.7062989355906728
1.7062989355906728
1.7039137385324339
1.698189032489186
1.6910326918704128
1.68196727382491
1.670515090665402
1.6334242288637992
1.573474070113225
1.5494491250097822
1.5371904382531771
1.5119527272431714
1.5983459035089693
2.12421171809255
1.9357676480787676
1.8915906943024923
1.7921460665037996
1.7313779018411712
1.6463987443635075
1.5400119914165562
1.4321985788174294
1.3454224596717017
1.2936624018350136
1.2840139528588397
1.3135354380090456
1.3732959349641105
1.453187121906644
1.5449449027430242
1.5841087992468994
1.6170557252515767
1.6428339469824518
1.6628796151449254
1.6786271828031984
1.691509796947673
1.7015284842131837
1.7091610960888055
1.7148851666195974
1.7191779984692814
1.7220397802020846
1.7234706390362113
1.7234706390362113
1.7225167355248119
1.7191779984692814
1.7144081735664296
1.7067759681068229
1.6977119588829441
1.687215771091553
1.6757641627418283
1.664788534929362
1.6419965160272343
1.628798540138889
1.5684021793328804
1.4856100722999712
2.321875290546366
2.190540407632052
2.025139298840058
1.8437859806016785
1.6283636599403586
1.4093944211871223
1.2397439081348671
1.1391733514623201
1.1098710087354782
1.1424456717208065
1.2221112015934752
1.333168204088717
1.458772729446767
1.5382570186711098
1.595569594522449
1.6390153155710045
1.6671746370462388
1.6862615187086163
1.7005743665137982
1.7120231732581372
1.7206088999927998
1.7244523457672085
1.7244598797623993
1.7239038859420623
1.7223669853745172
1.7197500421790899
1.7155755605304732
1.7095577846487497
1.7019282219791843
1.6927585238125145
1.6818808547573252
1.6698266936645882
1.6582577442684614
1.6451218614064704
1.6308513671439988
1.6176919901302045
1.6082991416334
1.6009879846718102
1.5880532989979814
1.5601739727712902
-2.9732123515917963
-1.85713220355168
-1.1485346824489475
-0.3932971279593366
0.17207667735721185
0.6085384747010972
0.9619063806204339
1.2193388877213847
1.3829232142920178
1.5067242451979521
1.5793331630659087
1.629945553417298
1.6490832023581503
1.6660234887704086
1.679260150810853
1.6887265211610916
1.6955371546188829
1.6992810295692962
1.701268533049376
1.701604241095463
1.7004893958516176
1.6988673469198148
1.6955800144995494
1.6918796779719338
1.6876908474640284
1.6826149388419767
1.6773657896806704
1.672760503890703
1.6686721621074185
1.666139819617859
1.6642362042755967
1.6629583214680388
1.6627694221831995
1.6642982067744208
1.6731795293841651
1.703720625826804
1.8154747022587978
1.6620468699424666
-2.4711061161675625
-1.0029572600092058
0.04449518652300118
0.5789833909445201
0.9009822523168921
1.1039171813832145
1.2570453913721282
1.3760821143031476
1.467941662557491
1.5363150386414277
1.5828521270974314
1.615076926726943
1.6389720404141157
1.6553245548337372
1.667417108826278
1.6755477217850856
1.6811711551024657
1.684905635317259
1.686956975271777
1.688055029484662
1.688671545124876
1.689083842459852
1.6887398638557864
1.6876149176905744
1.6867060679785808
1.68562234140489
1.6840873569397148
1.6834749992683875
1.683820861869825
1.6869583421963152
1.693309703161858
1.7033398730595541
1.7158340828159817
1.7268367869588528
1.7411874238115461
1.8021331193503898
1.7011167927536928
1.7886338928089816
-0.8512324291304221
-0.9902586731846803
-0.8700524794471538
0.3795942076290224
0.8923519917194932
1.1068298472640323
1.2388343350973592
1.340982154169999
1.4235003287423835
1.4904743856199694
1.5449418711615268
1.5869624234343782
1.6171466932572998
1.6381026203433289
1.6522740402436225
1.6613267364464235
1.6662464677664361
1.6686353517048587
1.6690563077956935
1.6690135502474572
1.6683814466286335
1.6683745640779204
1.6685341152433908
1.6685772929262603
1.668997847432758
1.6698110537180975
1.6716077667097267
1.673583783467016
1.6765790829983125
1.6809689453286007
1.6878508464314614
1.6986062000999564
1.7174265560069413
1.7512597611309983
1.7806867497291154
1.785453084059278
1.7902191493819337
1.7165109056845724
1.7208762948381398
1.6243824401614553
)
;

boundaryField
{
    ".*"
    {
        type            zeroGradient;
    }
}


// ************************************************************************* //
