/*--------------------------------*- C++ -*----------------------------------*=========                 |
  \      /  F ield         | OpenFOAM: The Open Source CFD Toolbox
   \    /   O peration     | Website:  https://openfoam.org
    \  /    A nd           | Version:  6
     \/     M anipulation  |
\*---------------------------------------------------------------------------*/
FoamFile
{
    version     2.0;
    format      ascii;
    class       volScalarField;
    location    "1500";
    object      PPD;
}
// * * * * * * * * * * * * * * * * * * * * * * * * * * * * * * * * * * * * * //

dimensions      [0 0 0 0 0 0 0];

internalField   nonuniform List<scalar> 
459
(
60.55412388882275
48.94767334944663
47.57283176644317
46.353608639703495
45.52177095379535
44.99495109255309
44.827864352183255
44.95947883390907
45.374759036740414
46.16261071430148
47.34924415585668
49.05340577773757
51.343294234209424
54.01768002789928
54.21400034098475
57.43721943115186
56.736556170300155
56.5028060676964
56.55475813014263
56.684619424636495
56.788488344705684
56.81840207752359
56.60022217234199
56.56183857536829
56.61755866258863
56.676233473677094
56.75800228851086
56.868209941140044
57.025976051192636
57.28460810467269
57.76155353209901
57.981466951885665
58.136835825887545
58.73181897449474
58.65386333095423
50.10613326739948
49.6627781048212
48.546196636159145
47.88198736139269
47.48586233594714
47.336982476673796
47.40310984026087
47.613635489748056
47.982026717294715
48.648705926940146
49.75195547667697
51.35094915447587
53.3328857804038
53.64147026063555
53.615443352032685
53.537363532126314
55.26553939687137
56.29495687084023
56.087046312342515
56.13902940193353
55.82564266687305
55.60767099659769
55.52739347157287
55.54188349912045
55.578638197638824
55.59766603715438
55.60902577010903
55.624448285088185
55.64754066917499
55.681009182077865
55.791479419338444
56.1783218460058
56.97021370414445
57.203770762826494
56.655947121192746
60.98948259352762
50.27432211394505
51.59498298159299
51.047472958057355
50.92930974856022
50.88626563171074
50.94261034030722
50.994944632107085
50.82565106806784
50.453506590032035
50.2162962386547
50.38326046820227
51.11262633251642
52.49503936088029
53.511337262706846
53.615443352032685
53.66749730259395
50.570877918855125
52.91826268209967
53.670104926258176
54.137818901077964
54.61938775944004
54.94276436578725
55.139103884512195
55.50060094246652
55.73494609963931
55.85115485839777
55.8744801653137
55.870276744615026
55.86173165889179
55.75670111651286
55.499204030677454
55.58305806133174
56.52448822019203
55.98929687318734
53.35296095683448
65.07180192409604
50.59222397044485
53.074526686852565
53.58756875947387
54.50612581560611
55.314813980478434
56.0041310290567
55.95461936843387
54.81617100604576
52.96773037968881
51.251365791849246
50.192901700952994
50.036834545508434
50.853128054305465
52.39892568043943
53.615443352032685
53.26881730448322
51.101854040608146
50.767567144029115
52.20581138210958
53.5787367506052
54.62335244738445
55.504671480516386
56.110791275906834
56.26633306933113
56.17053936049454
56.117087413444196
56.1317352348578
56.17416192257465
56.316135866217394
56.61198725376602
57.196677418970424
58.35805016962643
58.03141912399802
57.28521929172497
54.88249375515103
50.91674677438306
69.69540191881912
51.70689205924432
54.548482180933235
55.99322309218082
58.44852607454786
61.203050812867325
62.809143963069985
61.12076164765789
57.5155127648036
53.820483700563116
50.913001003959316
49.14542371817136
48.608254308359484
49.15909071053033
50.50864815569029
51.98025754332292
52.59287303736823
52.503494164407044
52.90131730300596
54.19759938283985
55.74577852660931
57.1163698654134
58.21697146002896
58.70597097042125
59.09347808322036
59.42893058816479
59.4811260902269
59.40613313845733
59.3138351238531
59.182653385643064
59.124985546652695
59.155560696053605
59.23856910845361
58.50409626514793
57.14548856439771
53.86865532245148
53.54945604479013
60.355795084614236
59.51590470617076
50.74716504981845
74.06311165349662
54.060821686073545
57.39904151674966
58.83075159472998
62.36067220616867
63.82182524515959
64.36917849652505
60.2668871809934
56.233274752219344
52.35700873208846
49.26219748833113
47.46147363654826
47.047683946095205
47.89410947805615
49.629792138714905
51.705481543286936
53.49471067290608
54.786486213877865
56.08406520587835
57.566863384328784
58.39564439252447
59.09347808322036
59.660943097829964
60.072929912693596
60.43288470031223
60.71533637277315
60.94617991794669
61.07432465367922
61.12556180527134
61.07432465367922
60.86925795367676
60.61266541057192
60.22725916348432
59.01434956184376
57.2064702680386
53.797827984463446
53.742450843715716
54.454038060467
54.32611383441506
54.937960609251576
78.12919774453269
59.19928060064059
65.43319211463164
63.923085033558245
63.694042368606404
62.75393215010231
60.30471073456634
56.74010214791295
52.61322061254775
48.86027225802344
46.18863399568833
45.08516991651695
45.544792458299156
47.32670444045308
50.02769515193945
53.20237099894097
55.82708025239047
57.074029715979904
58.21449705606281
59.170923077429904
59.9699926280117
60.58699069816269
61.07432465367922
61.432730004850555
61.71390579222732
61.918151377430085
62.04569688798924
62.12218362933838
62.09669145464487
61.94366718968321
61.662811714790685
61.27920100873569
60.81796219138482
60.25297161959538
58.24554134627773
55.08190229060953
53.84841941347172
53.18780774542318
51.77656270699084
56.4780101716784
83.53092514426055
75.35084631219594
73.25999639453414
68.32143786571748
65.51137255239558
61.69605889272235
56.537850448228696
50.97265756103904
46.15639535747144
42.94479329252237
41.71909305816065
42.4554602016891
44.853976643966185
48.45479233274021
52.85143424778609
55.82708025239047
57.566863384328784
58.99018827137253
60.124383307141564
60.92054216828536
61.53502028091389
62.02019451774539
62.351457988632866
62.60587273519021
62.78374794087177
62.885309709469524
62.9360681654551
62.9360681654551
62.85992485818263
62.68212694019453
62.427819843623226
62.02019451774539
61.58614644125595
61.07432465367922
60.50995000305638
59.9699926280117
58.632581367535444
57.91531803041378
54.678309318322164
50.29601359867458
89.98952929244538
85.82571982935346
79.33585620498172
71.12573201544032
61.78070551260056
50.779174817596406
41.70774174347268
35.94724796465185
33.638669153304164
34.22059132327014
37.15494870916253
41.89669604798324
47.82742742560985
53.09494945655787
55.85308047622607
58.369771631212586
59.995730733855524
61.099944721996344
61.86710976377627
62.45326670891682
62.885309709469524
63.07736073090712
63.0185726004698
62.95328556186281
62.85540195345291
62.671505924055786
62.42989244113971
62.11887886681677
61.701932521729844
61.208338074650094
60.654589389532276
60.036835091668536
59.45862097752326
58.78343756285146
58.04128534846054
57.32870307914207
56.816100070023
56.442739915999944
55.736040229269136
54.18626101931603
98.99637916007798
64.75999907650593
30.645019564587486
8.154075349727222
5.479196327772428
11.96241405390468
22.88953234783682
35.24349051772546
43.526597339148644
50.18517010555447
54.68246630195129
57.59278774743701
59.40905293414752
60.22078588300141
60.83987220353906
61.29077026332196
61.57397946750988
61.729151357544836
61.74972232264466
61.72366528602871
61.653167681186105
61.52621230805162
61.35686717051911
61.136825335902536
60.89020472343945
60.62374565155973
60.37746095728522
60.11807412492097
59.918230284517506
59.784786657095516
59.713930531643314
59.67739075611426
59.67277115631844
59.787054202632184
60.26940279436131
61.880447332845534
67.75056629316816
59.485046236080876
92.53681538597559
26.05935586940093
5.0184524054015185
11.399372949451418
21.626150463769918
30.19979895690679
37.6068821486053
43.78024285080936
48.71919751182201
52.505304083636354
55.20798066319297
57.04984280468691
58.33990064732631
59.26550863613772
59.896693128929954
60.31733985824631
60.58036590475397
60.746639728798854
60.856953755745955
60.944608982442546
60.966063131983866
60.97085840513098
60.958195565657164
60.90177757590185
60.830265774842964
60.77652788473931
60.70015700569331
60.67696637019083
60.709840158273764
60.87120712802558
61.23549606468536
61.800195093899454
62.47305547597592
63.08988816742772
63.858357426802236
67.0391124737026
61.624064666954084
66.25880609249867
21.4617410772871
27.153431385606027
22.191785328937996
7.4500966115844705
20.641024102062403
29.652850770724953
36.12072030582792
41.47442591145679
45.967792936040645
49.68850541213172
52.741347565219826
55.13318801777804
56.88219298994765
58.090104415551984
58.85970405538297
59.311981326181154
59.5604322145977
59.624435372776034
59.652370244032944
59.64632173384053
59.62297644941482
59.643064768985234
59.65632229217919
59.68878273017705
59.739455547190644
59.80914768884299
59.902719878390045
60.03136188658458
60.21397805953422
60.476232713760595
60.8434947146553
61.443367521647865
62.47069304686098
64.28215024748215
65.92606046089045
66.17432016128916
66.42206579682642
62.49219928687019
62.652967230583926
57.36649752070468
)
;

boundaryField
{
    ".*"
    {
        type            zeroGradient;
    }
}


// ************************************************************************* //
