// -*- C++ -*-
// File generated by PyFoam - sorry for the ugliness

FoamFile
{
 version 2.0;
 format ascii;
 class volVectorField;
 location "1500";
 object U;
}

dimensions [ 0 1 -1 0 0 0 0 ];

internalField nonuniform List<vector> 459
(
  (0.0344614 0.087751 0)
  (-0.170616 0.0261195 0)
  (-0.195108 0.0178666 0)
  (-0.225738 0.0121886 0)
  (-0.247736 0.00595552 0)
  (-0.260254 -0.000555972 0)
  (-0.261977 -0.00737222 0)
  (-0.251968 -0.0144819 0)
  (-0.231017 -0.0213313 0)
  (-0.200742 -0.0269047 0)
  (-0.164181 -0.0303997 0)
  (-0.124736 -0.031564 0)
  (-0.0856621 -0.030901 0)
  (-0.0520671 -0.0300802 0)
  (-0.0393165 -0.0308447 0)
  (0.000235792 0.0080452 0)
  (-0.0254087 -0.0198314 0)
  (0.000623095 -0.0288698 0)
  (0.0234238 -0.0209803 0)
  (0.04013 -0.0138922 0)
  (0.0522346 -0.00876877 0)
  (0.05924 -0.00526144 0)
  (0.0626479 -0.00343852 0)
  (0.0641572 -0.00262956 0)
  (0.0649276 -0.00222365 0)
  (0.0653936 -0.00195915 0)
  (0.0656089 -0.00174731 0)
  (0.0655152 -0.00149464 0)
  (0.0649073 -0.00103163 0)
  (0.0632219 2.31804e-05 0)
  (0.0592609 0.00219774 0)
  (0.0517356 0.00441367 0)
  (0.0456235 0.00601244 0)
  (-0.0163883 0.0223859 0)
  (0.211201 0.179281 0)
  (-0.158165 0.0685964 0)
  (-0.155896 0.0524723 0)
  (-0.187159 0.0405071 0)
  (-0.208628 0.0271185 0)
  (-0.22112 0.0123936 0)
  (-0.223313 -0.00383249 0)
  (-0.214156 -0.020951 0)
  (-0.194966 -0.0368099 0)
  (-0.167693 -0.0490716 0)
  (-0.135515 -0.0560942 0)
  (-0.101733 -0.0574803 0)
  (-0.0694806 -0.0538518 0)
  (-0.0424731 -0.0467732 0)
  (-0.0254225 -0.0376532 0)
  (-0.0114943 -0.0185827 0)
  (-0.00665342 0.0152238 0)
  (0.0766081 0.0338164 0)
  (0.0340824 -0.0200262 0)
  (0.0402742 -0.0323365 0)
  (0.0517037 -0.0273106 0)
  (0.0604301 -0.0185169 0)
  (0.0660199 -0.0105909 0)
  (0.068164 -0.00428391 0)
  (0.0684135 -0.000846159 0)
  (0.06829 0.00062851 0)
  (0.0683503 0.00131794 0)
  (0.0684959 0.00174683 0)
  (0.0685961 0.00211157 0)
  (0.0686056 0.0025771 0)
  (0.0684751 0.0034932 0)
  (0.0676569 0.00577667 0)
  (0.0636546 0.0121454 0)
  (0.0535627 0.0173282 0)
  (0.0501619 0.0204154 0)
  (-0.0580581 0.0484244 0)
  (0.372596 0.267766 0)
  (-0.173818 0.108813 0)
  (-0.11649 0.0844239 0)
  (-0.14618 0.0631613 0)
  (-0.164775 0.0412305 0)
  (-0.175803 0.0174831 0)
  (-0.177086 -0.00870048 0)
  (-0.167068 -0.0358741 0)
  (-0.148146 -0.0602121 0)
  (-0.122902 -0.0780829 0)
  (-0.0946919 -0.087351 0)
  (-0.0662495 -0.0880171 0)
  (-0.0397712 -0.08112 0)
  (-0.0174204 -0.0681697 0)
  (-0.00098341 -0.0500698 0)
  (0.0114078 -0.0244003 0)
  (0.018729 0.0110921 0)
  (0.119063 -0.0422294 0)
  (0.0772186 -0.0457972 0)
  (0.0715462 -0.0414544 0)
  (0.0736683 -0.0329508 0)
  (0.0750844 -0.0231273 0)
  (0.075689 -0.0148259 0)
  (0.0738124 -0.0119709 0)
  (0.0697838 -0.00850736 0)
  (0.0670827 -0.00663443 0)
  (0.0659108 -0.00556717 0)
  (0.0654391 -0.00489324 0)
  (0.0652459 -0.00442535 0)
  (0.0653671 -0.00396692 0)
  (0.0662705 -0.00316587 0)
  (0.0691747 -3.27629e-05 0)
  (0.0668508 0.0174438 0)
  (0.0524281 0.0295082 0)
  (0.0573649 0.0369582 0)
  (-0.0950729 0.0749458 0)
  (0.51728 0.338697 0)
  (-0.207233 0.144419 0)
  (-0.0756847 0.111157 0)
  (-0.102795 0.0818169 0)
  (-0.115461 0.0535239 0)
  (-0.122184 0.0223338 0)
  (-0.119176 -0.0135199 0)
  (-0.105924 -0.0508683 0)
  (-0.0866632 -0.0826073 0)
  (-0.0643385 -0.10444 0)
  (-0.0419896 -0.114457 0)
  (-0.0210043 -0.113771 0)
  (-0.00212605 -0.103877 0)
  (0.0140427 -0.0865342 0)
  (0.0275336 -0.0643857 0)
  (0.0421139 -0.0380908 0)
  (0.0648618 -0.0100657 0)
  (0.0965868 0.00713765 0)
  (0.103749 -0.0324118 0)
  (0.0883725 -0.0393278 0)
  (0.0794772 -0.0350457 0)
  (0.0755162 -0.0285859 0)
  (0.072981 -0.0208855 0)
  (0.0719861 -0.0118503 0)
  (0.0741163 -0.00694816 0)
  (0.0785566 -0.00558245 0)
  (0.0822539 -0.00479823 0)
  (0.0848214 -0.00413541 0)
  (0.0863789 -0.00322858 0)
  (0.086249 -0.00183631 0)
  (0.0833422 0.000236881 0)
  (0.0764322 0.00326344 0)
  (0.0625482 0.00779877 0)
  (0.0510921 0.0286803 0)
  (0.0386595 0.0456482 0)
  (0.0611362 0.0581226 0)
  (-0.140183 0.0975421 0)
  (0.64095 0.393567 0)
  (-0.247911 0.173537 0)
  (-0.0364195 0.125842 0)
  (-0.0575982 0.0916926 0)
  (-0.0615871 0.0596181 0)
  (-0.0603758 0.0227782 0)
  (-0.046434 -0.022126 0)
  (-0.0282297 -0.0675066 0)
  (-0.00999773 -0.102745 0)
  (0.00668061 -0.124922 0)
  (0.0198274 -0.132695 0)
  (0.0302495 -0.129235 0)
  (0.0382721 -0.116995 0)
  (0.0446791 -0.0983404 0)
  (0.0505847 -0.0758175 0)
  (0.0579105 -0.0521311 0)
  (0.06933 -0.032891 0)
  (0.0799542 -0.0289927 0)
  (0.08131 -0.0361033 0)
  (0.0743947 -0.0349933 0)
  (0.0660524 -0.029773 0)
  (0.0598573 -0.0239844 0)
  (0.0556374 -0.0180179 0)
  (0.0536157 -0.0119026 0)
  (0.0540915 -0.00674304 0)
  (0.0566688 -0.00442745 0)
  (0.0594886 -0.00355432 0)
  (0.062209 -0.00269725 0)
  (0.0646635 -0.000902617 0)
  (0.066398 0.00233212 0)
  (0.0661495 0.00703603 0)
  (0.0633699 0.0133219 0)
  (0.0573566 0.0218452 0)
  (0.0501745 0.037785 0)
  (0.0387201 0.0570224 0)
  (0.0684548 0.0781778 0)
  (-0.0381402 0.109881 0)
  (0.0470049 0.0242921 0)
  (-0.0695818 -0.0378611 0)
  (-0.285921 -0.0614074 0)
  (0.729481 0.439182 0)
  (-0.286969 0.192876 0)
  (-0.00720424 0.120038 0)
  (-0.0102005 0.0896421 0)
  (-0.00145738 0.0573872 0)
  (0.0135206 0.0129054 0)
  (0.0441308 -0.0408656 0)
  (0.0641609 -0.085312 0)
  (0.077261 -0.116554 0)
  (0.0838406 -0.134001 0)
  (0.0849758 -0.138542 0)
  (0.0823549 -0.132452 0)
  (0.0773975 -0.118389 0)
  (0.0715884 -0.0990833 0)
  (0.0663839 -0.0772331 0)
  (0.063077 -0.0555556 0)
  (0.0625086 -0.0379221 0)
  (0.0621134 -0.0291949 0)
  (0.0580187 -0.0274767 0)
  (0.0501895 -0.0257412 0)
  (0.041737 -0.0222565 0)
  (0.0350898 -0.0182867 0)
  (0.0306726 -0.0143799 0)
  (0.0286566 -0.0106466 0)
  (0.0289755 -0.00784017 0)
  (0.0310989 -0.00698596 0)
  (0.0340462 -0.00696364 0)
  (0.0374589 -0.00650501 0)
  (0.0411457 -0.00461097 0)
  (0.0448894 -0.000431367 0)
  (0.0480337 0.00614984 0)
  (0.0495559 0.0146893 0)
  (0.0497644 0.0253885 0)
  (0.0502961 0.0401712 0)
  (0.0481723 0.0588647 0)
  (0.0766694 0.0836726 0)
  (0.0480658 0.102848 0)
  (0.0974294 0.0684379 0)
  (0.122197 0.0447302 0)
  (-0.138852 -0.0102233 0)
  (0.785108 0.480939 0)
  (-0.30462 0.177729 0)
  (0.0229899 0.064538 0)
  (0.0560866 0.0563788 0)
  (0.0812675 0.0346432 0)
  (0.122185 -0.0152757 0)
  (0.151341 -0.0635499 0)
  (0.166592 -0.0992816 0)
  (0.169383 -0.121604 0)
  (0.162026 -0.131536 0)
  (0.147385 -0.130629 0)
  (0.128443 -0.121119 0)
  (0.107839 -0.105602 0)
  (0.0877926 -0.0866605 0)
  (0.0700006 -0.0665596 0)
  (0.0554684 -0.0473922 0)
  (0.0445765 -0.0319698 0)
  (0.0360145 -0.0228228 0)
  (0.0276787 -0.0190634 0)
  (0.0190786 -0.0171381 0)
  (0.0113431 -0.0150707 0)
  (0.00552559 -0.0130198 0)
  (0.00183568 -0.0112434 0)
  (0.000283133 -0.00981309 0)
  (0.000686323 -0.00913962 0)
  (0.00249847 -0.00955806 0)
  (0.00507973 -0.0103112 0)
  (0.00822937 -0.0104814 0)
  (0.0120219 -0.00918448 0)
  (0.0166196 -0.00538086 0)
  (0.0231857 0.00189892 0)
  (0.029384 0.0113495 0)
  (0.0353059 0.0221765 0)
  (0.0430187 0.03517 0)
  (0.0508991 0.0501904 0)
  (0.077058 0.070271 0)
  (0.0898328 0.0779489 0)
  (0.12646 0.0512406 0)
  (0.168705 0.0418956 0)
  (-0.032447 0.0951726 0)
  (0.892625 0.48101 0)
  (-0.0584266 0.156492 0)
  (0.117686 -0.0227887 0)
  (0.202059 -0.0563582 0)
  (0.244685 -0.066798 0)
  (0.271626 -0.0831447 0)
  (0.283333 -0.0991286 0)
  (0.278531 -0.110039 0)
  (0.258969 -0.114512 0)
  (0.228663 -0.11256 0)
  (0.192154 -0.104848 0)
  (0.153538 -0.0925315 0)
  (0.116124 -0.0772297 0)
  (0.0823162 -0.0606931 0)
  (0.0535689 -0.044316 0)
  (0.0304059 -0.0293135 0)
  (0.0132876 -0.0179911 0)
  (0.00092761 -0.0117456 0)
  (-0.0083183 -0.00963844 0)
  (-0.0156501 -0.00914231 0)
  (-0.0214891 -0.0088704 0)
  (-0.0257442 -0.00872393 0)
  (-0.0285272 -0.00879732 0)
  (-0.029976 -0.00916697 0)
  (-0.0303245 -0.00998223 0)
  (-0.0299881 -0.0112475 0)
  (-0.0293364 -0.0125874 0)
  (-0.028438 -0.013527 0)
  (-0.027088 -0.0135714 0)
  (-0.0248267 -0.0121309 0)
  (-0.020551 -0.00844637 0)
  (-0.0106716 -0.00184087 0)
  (-0.00110615 0.00653812 0)
  (0.0106507 0.0149426 0)
  (0.0230717 0.0220042 0)
  (0.0457574 0.030393 0)
  (0.0659916 0.0239288 0)
  (0.0852061 -0.0025827 0)
  (0.145852 0.0509132 0)
  (-0.473916 0.217722 0)
  (1.04438 0.426454 0)
  (0.494635 0.278603 0)
  (0.513374 0.173739 0)
  (0.548596 0.098291 0)
  (0.530536 0.0466421 0)
  (0.485008 0.00460701 0)
  (0.432249 -0.0272754 0)
  (0.374195 -0.0477303 0)
  (0.311446 -0.0575285 0)
  (0.247212 -0.0588253 0)
  (0.185436 -0.0541793 0)
  (0.129159 -0.0457045 0)
  (0.0805108 -0.0353072 0)
  (0.0403754 -0.0246549 0)
  (0.00846548 -0.0148122 0)
  (-0.0156253 -0.0069025 0)
  (-0.0296608 -0.0031584 0)
  (-0.0385469 -0.00209023 0)
  (-0.0447094 -0.00253468 0)
  (-0.0496474 -0.0035098 0)
  (-0.0537334 -0.00454521 0)
  (-0.0570715 -0.00561546 0)
  (-0.0598074 -0.00674722 0)
  (-0.0621324 -0.00796468 0)
  (-0.0643086 -0.00928432 0)
  (-0.0666811 -0.0106171 0)
  (-0.0695807 -0.0116909 0)
  (-0.0732755 -0.0121191 0)
  (-0.0780492 -0.011417 0)
  (-0.0843108 -0.00896472 0)
  (-0.092622 -0.00400646 0)
  (-0.103016 0.00401398 0)
  (-0.113639 0.014691 0)
  (-0.129225 0.0280957 0)
  (-0.153922 0.0440505 0)
  (-0.189861 0.061065 0)
  (-0.2416 0.0747287 0)
  (-0.303391 0.082886 0)
  (-0.380965 0.0863543 0)
  (-0.655224 0.0804986 0)
  (-0.188158 -0.0185107 0)
  (0.102473 -0.0297022 0)
  (0.179024 -0.0509093 0)
  (0.167688 -0.0449346 0)
  (0.150551 -0.0330751 0)
  (0.128407 -0.0222591 0)
  (0.0983577 -0.0130125 0)
  (0.0639591 -0.00565373 0)
  (0.0296855 -0.000456755 0)
  (-0.00265622 0.00297214 0)
  (-0.0285879 0.00455995 0)
  (-0.0473503 0.00483713 0)
  (-0.0602129 0.00415724 0)
  (-0.0677788 0.00241987 0)
  (-0.0719373 -0.000101028 0)
  (-0.074841 -0.00275512 0)
  (-0.0773256 -0.00543706 0)
  (-0.0798739 -0.00788212 0)
  (-0.0826398 -0.00979859 0)
  (-0.0854893 -0.011147 0)
  (-0.088376 -0.0121096 0)
  (-0.091475 -0.0127585 0)
  (-0.0949756 -0.0131275 0)
  (-0.0990459 -0.0131514 0)
  (-0.103774 -0.0126156 0)
  (-0.109112 -0.0111618 0)
  (-0.114833 -0.00831928 0)
  (-0.120492 -0.00355984 0)
  (-0.125447 0.0035436 0)
  (-0.129133 0.0131499 0)
  (-0.13203 0.0261831 0)
  (-0.134421 0.0431286 0)
  (-0.137134 0.0633759 0)
  (-0.140348 0.0837981 0)
  (-0.140242 0.0960923 0)
  (-0.118094 0.0857935 0)
  (-0.0423621 0.0285626 0)
  (-0.209593 -0.186687 0)
  (0.0305204 0.199833 0)
  (0.0173629 0.0664439 0)
  (-0.0295246 0.0132717 0)
  (-0.0509852 0.0119133 0)
  (-0.0675259 0.0173058 0)
  (-0.0799676 0.0211682 0)
  (-0.0888808 0.0245043 0)
  (-0.0959525 0.0275556 0)
  (-0.101348 0.0297115 0)
  (-0.105175 0.0306534 0)
  (-0.10735 0.0306623 0)
  (-0.108027 0.0306848 0)
  (-0.107502 0.0311947 0)
  (-0.106191 0.032176 0)
  (-0.104743 0.0336766 0)
  (-0.103577 0.03565 0)
  (-0.102856 0.0376225 0)
  (-0.102648 0.0390489 0)
  (-0.102905 0.0394125 0)
  (-0.103594 0.0384576 0)
  (-0.104686 0.0370933 0)
  (-0.106176 0.0354353 0)
  (-0.108051 0.0335243 0)
  (-0.110279 0.0314306 0)
  (-0.112779 0.0292568 0)
  (-0.1154 0.0271142 0)
  (-0.117891 0.0250864 0)
  (-0.119775 0.023293 0)
  (-0.120224 0.0230464 0)
  (-0.11805 0.0256191 0)
  (-0.111808 0.0320191 0)
  (-0.100304 0.0431332 0)
  (-0.083677 0.0587911 0)
  (-0.0634768 0.0750262 0)
  (-0.0425978 0.0822786 0)
  (0.039095 0.0333306 0)
  (0.150494 -0.0588751 0)
  (-0.0519295 -0.0627393 0)
  (-0.0893473 -0.346206 0)
  (-0.446323 -0.138436 0)
  (-0.332664 0.0447442 0)
  (-0.288264 -0.0457919 0)
  (-0.246964 -0.0528799 0)
  (-0.23501 -0.0454852 0)
  (-0.226878 -0.038366 0)
  (-0.217843 -0.0338358 0)
  (-0.206752 -0.0314697 0)
  (-0.1937 -0.0313341 0)
  (-0.179486 -0.0339689 0)
  (-0.165358 -0.0395054 0)
  (-0.152513 -0.047411 0)
  (-0.141665 -0.056596 0)
  (-0.133016 -0.0662508 0)
  (-0.126472 -0.0759821 0)
  (-0.121739 -0.0853153 0)
  (-0.118391 -0.093622 0)
  (-0.116064 -0.100403 0)
  (-0.114543 -0.105244 0)
  (-0.113748 -0.107879 0)
  (-0.113674 -0.108205 0)
  (-0.114252 -0.107126 0)
  (-0.115283 -0.104855 0)
  (-0.11661 -0.101534 0)
  (-0.118073 -0.0972367 0)
  (-0.119459 -0.0919527 0)
  (-0.120456 -0.0855716 0)
  (-0.120656 -0.0778445 0)
  (-0.119528 -0.0684988 0)
  (-0.116134 -0.0582484 0)
  (-0.108636 -0.0470037 0)
  (-0.0944317 -0.0344521 0)
  (-0.0713626 -0.0198941 0)
  (-0.0398822 -0.00282072 0)
  (0.00503132 0.0163191 0)
  (0.0464256 0.00824 0)
  (0.107689 -0.046577 0)
  (0.119536 -0.0882534 0)
  (-0.517574 0.0108974 0)
)
;

boundaryField
{
  floor
  {
    type noSlip;
  }
  ceiling
  {
    type noSlip;
  }
  sWall
  {
    type noSlip;
  }
  nWall
  {
    type noSlip;
  }
  sideWalls
  {
    type empty;
  }
  glass1
  {
    type noSlip;
  }
  glass2
  {
    type noSlip;
  }
  sun
  {
    type noSlip;
  }
  heatsource1
  {
    type noSlip;
  }
  heatsource2
  {
    type noSlip;
  }
  Table_master
  {
    type noSlip;
  }
  Table_slave
  {
    type noSlip;
  }
  inlet
  {
    type fixedValue;
    value uniform (0.277164 -0.114805 0);
  }
  outlet
  {
    type zeroGradient;
  }
} 	// ************************************************************************* //

