/*--------------------------------*- C++ -*----------------------------------*\
  =========                 |
  \\      /  F ield         | OpenFOAM: The Open Source CFD Toolbox
   \\    /   O peration     | Website:  https://openfoam.org
    \\  /    A nd           | Version:  6
     \\/     M anipulation  |
\*---------------------------------------------------------------------------*/
FoamFile
{
    version     2.0;
    format      ascii;
    class       volScalarField;
    location    "1600";
    object      alphat;
}
// * * * * * * * * * * * * * * * * * * * * * * * * * * * * * * * * * * * * * //

dimensions      [1 -1 -1 0 0 0 0];

internalField   nonuniform List<scalar> 
459
(
0.00132292
0.00144993
0.00147789
0.00155089
0.00161933
0.00168423
0.00174893
0.00180845
0.00184853
0.0018624
0.00184411
0.00179
0.00169894
0.00157627
0.00143777
0.000598876
0.00072381
0.000813922
0.000811957
0.000785286
0.000749282
0.000703103
0.000657091
0.000615291
0.00057817
0.000545291
0.00051608
0.000490121
0.000466809
0.000445331
0.000424649
0.000403318
0.000390177
0.000357815
0.00179992
0.00450726
0.0043539
0.00508151
0.00579948
0.00650765
0.00710992
0.00758441
0.0080048
0.00833792
0.00854066
0.00856859
0.00835403
0.00772275
0.00597202
0.00147725
0.000854039
0.000637072
0.00133907
0.0018674
0.00225424
0.00246118
0.00245055
0.00195337
0.00168033
0.00148623
0.00133769
0.00121979
0.00112388
0.00104088
0.000963716
0.000888992
0.000822681
0.00076406
0.000913407
0.000474461
0.0021931
0.00616216
0.00543182
0.00679576
0.00749
0.00801021
0.00841599
0.00876112
0.00912662
0.00949597
0.00982194
0.0100506
0.0101192
0.00991985
0.00915282
0.00692863
0.00151197
0.00123435
0.00180578
0.00233926
0.0028261
0.0031577
0.00306719
0.000997622
0.000880393
0.000786166
0.000710176
0.000648323
0.000597441
0.000555262
0.000520341
0.000492118
0.000531168
0.000613539
0.00103813
0.000554368
0.00256713
0.00783994
0.00549169
0.0071958
0.0077948
0.0080233
0.00819548
0.00841188
0.00872944
0.00912906
0.00954815
0.00992159
0.0101779
0.0102265
0.009996
0.00913191
0.00624172
0.00178319
0.00222891
0.00290242
0.00356431
0.00408887
0.00439947
0.00410049
0.00112177
0.00102152
0.000950064
0.000895314
0.000848171
0.000804912
0.000763238
0.000719495
0.0006688
0.000626435
0.000644832
0.0012199
0.000613505
0.0029461
0.00996828
0.00608203
0.00699086
0.0077388
0.0078189
0.00780575
0.0079701
0.00826076
0.00868508
0.00915987
0.00959816
0.0098949
0.00998527
0.00986075
0.00947894
0.00860957
0.00714106
0.00663868
0.00647939
0.0064211
0.00636729
0.00626509
0.00597975
0.00500628
0.00454227
0.0042713
0.00406037
0.00383916
0.00352168
0.00310338
0.00260677
0.00206477
0.00152847
0.00113034
0.00119318
0.000804732
0.000747351
0.000892468
0.000999584
0.00334591
0.0122731
0.00833021
0.00713554
0.00767486
0.00781663
0.00776753
0.00787528
0.00810407
0.00849281
0.0089971
0.00948543
0.00980763
0.00987027
0.00968448
0.00934968
0.00897428
0.00861335
0.00840018
0.0082035
0.0079551
0.00766741
0.007355
0.00699725
0.0065274
0.006129
0.00579004
0.00547485
0.00516008
0.00481617
0.00437738
0.00382807
0.00317295
0.00245835
0.00183681
0.00136932
0.00107647
0.000950667
0.00137623
0.00104889
0.00370056
0.0138344
0.0114705
0.00918921
0.00879549
0.00849106
0.00816105
0.00802929
0.00817331
0.00858514
0.00915691
0.00970132
0.0100268
0.0100261
0.00973684
0.00934533
0.00909107
0.00904391
0.00901789
0.00882364
0.00845659
0.0079944
0.0074935
0.00698359
0.0064892
0.00606197
0.00569112
0.00535729
0.00505482
0.00478799
0.00455248
0.00417787
0.00364856
0.00301469
0.00242225
0.00189224
0.00154674
0.00148189
0.0015578
0.00121116
0.00375904
0.0120613
0.0108954
0.0100864
0.00930352
0.00851854
0.00803199
0.00797099
0.00832202
0.00896795
0.00970587
0.0102916
0.0105291
0.0103558
0.00988835
0.00941829
0.00922727
0.00923933
0.00906333
0.0086112
0.00798713
0.00729497
0.00661556
0.00601205
0.00551844
0.0051295
0.0048158
0.00456017
0.00436159
0.0042276
0.00416576
0.00412931
0.0038155
0.00339496
0.0030405
0.00289565
0.00310808
0.00378747
0.00475701
0.0018634
0.0036486
0.00430614
0.00474903
0.00486003
0.00511185
0.00566733
0.00654453
0.00768286
0.00893316
0.0100899
0.0109353
0.0112883
0.0110974
0.0104967
0.00980956
0.00938623
0.00909159
0.00873305
0.00815914
0.00739799
0.00656578
0.00577937
0.00511979
0.0046126
0.00423575
0.00394846
0.00371692
0.00352177
0.00335161
0.00319746
0.00305178
0.00291828
0.00281343
0.00274545
0.00273693
0.0027724
0.00276771
0.00264863
0.00245954
0.00171304
0.00174111
0.00438913
0.00790169
0.0101775
0.0116759
0.012593
0.0129775
0.0129132
0.0124928
0.0118177
0.0108464
0.00984351
0.00906399
0.0084939
0.00789756
0.00717118
0.00635594
0.00553784
0.00479632
0.00420338
0.0037689
0.00345931
0.00323428
0.00306367
0.00292984
0.00282439
0.00274459
0.00269184
0.00267166
0.00268171
0.00270815
0.00274712
0.0027854
0.00278624
0.0026945
0.00249167
0.00219117
0.00138066
0.00262113
0.00802056
0.0110134
0.0117837
0.0120202
0.0118511
0.0113068
0.0105282
0.00964832
0.00878793
0.00797068
0.00727112
0.00667408
0.00606711
0.0054134
0.00476654
0.00418033
0.00368603
0.00329337
0.00299292
0.00277672
0.00262514
0.00252317
0.00246196
0.00243601
0.00244027
0.00246792
0.00251245
0.00258383
0.00267603
0.00278431
0.00289954
0.00300217
0.0030754
0.00306195
0.00306322
0.00276331
0.00139785
0.00231796
0.00245904
0.00256048
0.00274003
0.00262531
0.00252219
0.00243924
0.00232034
0.00216022
0.00196818
0.00175413
0.00153642
0.00134071
0.00118298
0.00106393
0.000976045
0.000911168
0.000863521
0.000829943
0.000808818
0.000798952
0.000798381
0.000804622
0.000816723
0.000834122
0.000856583
0.000884138
0.000917126
0.000956366
0.00100303
0.00105632
0.0011168
0.00118492
0.00126122
0.00134561
0.00145813
0.00148946
0.00145229
0.00135472
0.00124942
)
;

boundaryField
{
    floor
    {
        type            compressible::alphatWallFunction;
        Prt             0.85;
        value           nonuniform List<scalar> 
29
(
0.000202556
8.41729e-05
0.000102656
0.000115746
0.000115463
0.000111607
0.000106376
9.96222e-05
9.28391e-05
8.66267e-05
8.10661e-05
7.61043e-05
7.16646e-05
6.7693e-05
6.41037e-05
6.07768e-05
5.7554e-05
5.42088e-05
5.2137e-05
4.69958e-05
4.69951e-05
6.52847e-05
7.74781e-05
8.63609e-05
0.000202553
8.41719e-05
8.98687e-05
0.000174843
0.00024865
)
;
    }
    ceiling
    {
        type            compressible::alphatWallFunction;
        Prt             0.85;
        value           nonuniform List<scalar> 
43
(
0.000318016
0.000336044
0.000348941
0.000371793
0.000357368
0.000344318
0.000333772
0.00031858
0.000297981
0.000273053
0.000244949
0.000215973
0.000189532
0.000167904
0.000151362
0.000139014
0.000129815
0.00012301
0.000118187
0.000115141
0.000113715
0.000113633
0.000114535
0.000116282
0.000118788
0.000122015
0.000125959
0.000130663
0.000136232
0.00014282
0.0001503
0.000158737
0.000168176
0.000178676
0.000190207
0.000205454
0.000209676
0.000204667
0.000191447
0.000177062
0.000484741
0.000564449
0.000356386
)
;
    }
    sWall
    {
        type            compressible::alphatWallFunction;
        Prt             0.85;
        value           uniform 0.000316743;
    }
    nWall
    {
        type            compressible::alphatWallFunction;
        Prt             0.85;
        value           nonuniform List<scalar> 6(0.000141985 0.000148904 0.000171428 0.000194625 0.000196953 0.000176714);
    }
    sideWalls
    {
        type            empty;
    }
    glass1
    {
        type            compressible::alphatWallFunction;
        Prt             0.85;
        value           nonuniform List<scalar> 9(0.000182233 0.000245238 0.000295929 0.000343343 0.000390714 0.000440052 0.000483361 0.000490608 0.000477447);
    }
    glass2
    {
        type            compressible::alphatWallFunction;
        Prt             0.85;
        value           nonuniform List<scalar> 2(0.000257237 0.000237586);
    }
    sun
    {
        type            compressible::alphatWallFunction;
        Prt             0.85;
        value           nonuniform List<scalar> 
14
(
0.000186989
0.000204203
0.000207973
0.000217778
0.000226925
0.000235558
0.000244129
0.000251982
0.000257256
0.000259076
0.000256673
0.000249549
0.000237506
0.00022117
)
;
    }
    heatsource1
    {
        type            compressible::alphatWallFunction;
        Prt             0.85;
        value           nonuniform List<scalar> 3(0.000106248 0.000127175 0.000142362);
    }
    heatsource2
    {
        type            compressible::alphatWallFunction;
        Prt             0.85;
        value           nonuniform List<scalar> 4(0.000208058 0.000121678 0.000121677 0.000212728);
    }
    Table_master
    {
        type            compressible::alphatWallFunction;
        Prt             0.85;
        value           nonuniform List<scalar> 9(0.000142083 0.000125448 0.000111887 0.00010081 9.16867e-05 8.41021e-05 7.77545e-05 7.24537e-05 6.8137e-05);
    }
    Table_slave
    {
        type            compressible::alphatWallFunction;
        Prt             0.85;
        value           nonuniform List<scalar> 9(0.000159457 0.000145449 0.000135367 0.000127582 0.000120834 0.000114603 0.000108562 0.000102178 9.47203e-05);
    }
    inlet
    {
        type            fixedValue;
        value           uniform 1.94e-05;
    }
    outlet
    {
        type            zeroGradient;
    }
}


// ************************************************************************* //
