/*--------------------------------*- C++ -*----------------------------------*\
  =========                 |
  \\      /  F ield         | OpenFOAM: The Open Source CFD Toolbox
   \\    /   O peration     | Website:  https://openfoam.org
    \\  /    A nd           | Version:  6
     \\/     M anipulation  |
\*---------------------------------------------------------------------------*/
FoamFile
{
    version     2.0;
    format      ascii;
    class       volScalarField;
    location    "1600";
    object      epsilon;
}
// * * * * * * * * * * * * * * * * * * * * * * * * * * * * * * * * * * * * * //

dimensions      [0 2 -3 0 0 0 0];

internalField   nonuniform List<scalar> 
459
(
0.000520038
0.000682757
0.000722929
0.000835395
0.000950915
0.00106983
0.00119787
0.0013243
0.0014142
0.00144612
0.00140379
0.0012837
0.00109753
0.000876548
0.000665246
4.81398e-05
8.49672e-05
0.000120806
0.000119939
0.00010851
9.42637e-05
7.78909e-05
6.35811e-05
5.22052e-05
4.33169e-05
3.6341e-05
3.08092e-05
2.63912e-05
2.28027e-05
1.97986e-05
1.71672e-05
1.47087e-05
1.33182e-05
1.0274e-05
0.00131226
0.00185889
0.00064722
0.000629841
0.000665715
0.000722527
0.00080376
0.000903138
0.000990956
0.00103979
0.00103029
0.000958742
0.000834613
0.00068524
0.000572518
0.000721438
0.00013941
5.7955e-05
0.000136666
0.000145477
0.000132927
0.000113577
9.54312e-05
8.62274e-05
6.99472e-05
5.55201e-05
4.40692e-05
3.5224e-05
2.84228e-05
2.31987e-05
1.91878e-05
1.62245e-05
1.44079e-05
1.36319e-05
3.54504e-05
2.39502e-05
0.00237852
0.00449474
0.00081321
0.000611035
0.000648432
0.00073894
0.000868025
0.00101819
0.00114415
0.00121175
0.00120558
0.0011299
0.000996846
0.000838449
0.000694898
0.000627676
0.000773596
0.000421269
0.000306202
0.000232957
0.000181084
0.000143353
0.000121218
0.000222513
0.000152927
0.000108891
8.02687e-05
6.1069e-05
4.77891e-05
3.83652e-05
3.15724e-05
2.67087e-05
2.03087e-05
1.71551e-05
6.78469e-05
3.8203e-05
0.00382251
0.00922944
0.00130404
0.00064072
0.000658818
0.000793998
0.00100287
0.00122634
0.00138251
0.00144838
0.00142471
0.00132592
0.00116123
0.000971174
0.000800673
0.000686242
0.000667572
0.00126945
0.000719945
0.000434039
0.000291426
0.000210598
0.000160823
0.000138075
0.000316531
0.000239055
0.000192333
0.000160975
0.000136872
0.000116985
9.97433e-05
8.35604e-05
6.71132e-05
3.94716e-05
2.6415e-05
0.000117177
5.17839e-05
0.005789
0.0162824
0.00259024
0.000816219
0.00073479
0.000933724
0.0013121
0.00160742
0.00175201
0.00177794
0.0017112
0.00156568
0.00135503
0.00111013
0.00087102
0.000672586
0.000536037
0.000481399
0.000392345
0.000309416
0.000242668
0.000191444
0.000153302
0.00012824
0.000123997
0.000115344
0.000106637
9.79224e-05
8.86893e-05
7.90557e-05
6.96574e-05
6.08497e-05
5.2736e-05
4.16964e-05
3.21844e-05
8.22024e-05
5.84943e-05
9.37027e-05
0.000159643
0.000224315
0.00849522
0.0239913
0.0057862
0.00168454
0.00125353
0.00159011
0.00210862
0.00230566
0.00232619
0.00225411
0.00211453
0.00190071
0.00161542
0.00128744
0.000964765
0.000694987
0.000505544
0.000395078
0.000324566
0.000267101
0.000216501
0.00017488
0.000143393
0.000122597
0.0001128
0.00010862
0.000105898
0.000102323
9.65559e-05
8.7582e-05
7.60426e-05
6.44965e-05
5.41133e-05
4.48512e-05
3.93811e-05
5.86495e-05
6.03179e-05
7.25299e-05
0.000298106
0.000259077
0.0115122
0.0285229
0.0116742
0.00535554
0.00398705
0.00397754
0.00377349
0.00348627
0.0032037
0.00294496
0.00267565
0.00234786
0.00194614
0.00150128
0.00107379
0.00072755
0.000494361
0.000361144
0.000285647
0.000232072
0.000188172
0.000154157
0.000130837
0.000117972
0.000114258
0.00011602
0.000119508
0.000122747
0.000124268
0.000121953
0.000111365
9.78193e-05
8.47404e-05
7.36291e-05
6.98267e-05
8.17641e-05
0.000107044
0.0001815
0.000425157
0.000398812
0.0120953
0.0298935
0.0172101
0.0123029
0.00966371
0.00753599
0.00600541
0.00498729
0.00432536
0.00385327
0.00341826
0.00291463
0.00232548
0.00170469
0.00113477
0.000704357
0.000441226
0.000302565
0.000232008
0.000187092
0.000154337
0.000132282
0.000120115
0.000116491
0.000119647
0.000127466
0.000138398
0.000152051
0.0001685
0.000187486
0.00020738
0.000216246
0.000227195
0.000251703
0.0003031
0.000471443
0.000917946
0.00185519
0.00545044
0.00145529
0.0110977
0.0181905
0.0146181
0.0111924
0.00879233
0.00728563
0.00638187
0.00584125
0.00544809
0.00500717
0.00438219
0.00353837
0.00259953
0.00171231
0.000973565
0.000523148
0.000322576
0.000227876
0.000177263
0.000145685
0.000125456
0.000114265
0.00011056
0.000112888
0.000120059
0.000131373
0.000146911
0.000167654
0.000195403
0.0002328
0.000283457
0.000352667
0.000448242
0.000595452
0.000811356
0.00110139
0.00142571
0.00169418
0.00188897
0.00113271
0.00375941
0.00661771
0.00845516
0.00892733
0.00890467
0.00843094
0.00743953
0.00604527
0.0044538
0.00281672
0.00169383
0.000982893
0.000559591
0.000338816
0.000232945
0.00017921
0.000148576
0.000129139
0.000116912
0.000110491
0.000108849
0.000111077
0.000116637
0.000125435
0.000137873
0.000154946
0.000178418
0.000211171
0.00025775
0.000324242
0.000417767
0.000547468
0.000715443
0.000900851
0.0010461
0.00107842
0.000943062
0.000592928
0.00373111
0.00846782
0.00846954
0.00702299
0.00608732
0.0051115
0.00403878
0.00297774
0.00203274
0.00127516
0.000778096
0.000484728
0.000324033
0.000241345
0.000198836
0.000174668
0.000158607
0.000146583
0.000137204
0.000130387
0.000126477
0.000125531
0.000127736
0.00013354
0.000143689
0.00015928
0.000181914
0.000213944
0.000258771
0.000321053
0.000407016
0.000522758
0.000668415
0.000834215
0.000957007
0.00106312
0.000810916
0.00061527
0.00267915
0.0031963
0.00360817
0.00452534
0.00401728
0.00357643
0.00324288
0.00279653
0.00225988
0.00171111
0.00121239
0.0008152
0.000541915
0.000372386
0.000270953
0.000209233
0.000170239
0.000144914
0.000128662
0.000119087
0.000114783
0.000114537
0.000117243
0.000122612
0.000130616
0.000141453
0.000155546
0.000173614
0.000196865
0.000227109
0.000265264
0.000313491
0.000374429
0.000451526
0.000548404
0.000697889
0.000743933
0.000689663
0.000559808
0.000439326
)
;

boundaryField
{
    floor
    {
        Cmu             0.09;
        kappa           0.41;
        E               9.8;
        type            epsilonWallFunction;
        value           nonuniform List<scalar> 
29
(
0.000665246
4.81398e-05
8.49672e-05
0.000120806
0.000119939
0.00010851
9.42637e-05
7.78909e-05
6.35811e-05
5.22052e-05
4.33169e-05
3.6341e-05
3.08092e-05
2.63912e-05
2.28027e-05
1.97986e-05
1.71672e-05
1.47087e-05
1.33182e-05
1.0274e-05
1.0274e-05
2.39502e-05
3.8203e-05
5.17839e-05
0.000665246
4.81398e-05
5.7955e-05
0.000421269
0.00126945
)
;
    }
    ceiling
    {
        Cmu             0.09;
        kappa           0.41;
        E               9.8;
        type            epsilonWallFunction;
        value           nonuniform List<scalar> 
43
(
0.00267915
0.0031963
0.00360817
0.00452534
0.00401728
0.00357643
0.00324288
0.00279653
0.00225988
0.00171111
0.00121239
0.0008152
0.000541915
0.000372386
0.000270953
0.000209233
0.000170239
0.000144914
0.000128662
0.000119087
0.000114783
0.000114537
0.000117243
0.000122612
0.000130616
0.000141453
0.000155546
0.000173614
0.000196865
0.000227109
0.000265264
0.000313491
0.000374429
0.000451526
0.000548404
0.000697889
0.000743933
0.000689663
0.000559808
0.000439326
0.0110977
0.0181905
0.00373111
)
;
    }
    sWall
    {
        Cmu             0.09;
        kappa           0.41;
        E               9.8;
        type            epsilonWallFunction;
        value           uniform 0.00267915;
    }
    nWall
    {
        Cmu             0.09;
        kappa           0.41;
        E               9.8;
        type            epsilonWallFunction;
        value           nonuniform List<scalar> 6(0.000224315 0.000259077 0.000398812 0.000592928 0.00061527 0.000439326);
    }
    sideWalls
    {
        type            empty;
    }
    glass1
    {
        Cmu             0.09;
        kappa           0.41;
        E               9.8;
        type            epsilonWallFunction;
        value           nonuniform List<scalar> 9(0.000520038 0.00131226 0.00237852 0.00382251 0.005789 0.00849522 0.0115122 0.0120953 0.0110977);
    }
    glass2
    {
        Cmu             0.09;
        kappa           0.41;
        E               9.8;
        type            epsilonWallFunction;
        value           nonuniform List<scalar> 2(0.00145529 0.00113271);
    }
    sun
    {
        Cmu             0.09;
        kappa           0.41;
        E               9.8;
        type            epsilonWallFunction;
        value           nonuniform List<scalar> 
14
(
0.000520038
0.000682757
0.000722929
0.000835395
0.000950915
0.00106983
0.00119787
0.0013243
0.0014142
0.00144612
0.00140379
0.0012837
0.00109753
0.000876548
)
;
    }
    heatsource1
    {
        Cmu             0.09;
        kappa           0.41;
        E               9.8;
        type            epsilonWallFunction;
        value           nonuniform List<scalar> 3(9.37027e-05 0.000159643 0.000224315);
    }
    heatsource2
    {
        Cmu             0.09;
        kappa           0.41;
        E               9.8;
        type            epsilonWallFunction;
        value           nonuniform List<scalar> 4(0.000721438 0.00013941 0.00013941 0.000773596);
    }
    Table_master
    {
        Cmu             0.09;
        kappa           0.41;
        E               9.8;
        type            epsilonWallFunction;
        value           nonuniform List<scalar> 9(0.000222513 0.000152927 0.000108891 8.02687e-05 6.1069e-05 4.77891e-05 3.83652e-05 3.15724e-05 2.67087e-05);
    }
    Table_slave
    {
        Cmu             0.09;
        kappa           0.41;
        E               9.8;
        type            epsilonWallFunction;
        value           nonuniform List<scalar> 9(0.000316531 0.000239055 0.000192333 0.000160975 0.000136872 0.000116985 9.97433e-05 8.35604e-05 6.71132e-05);
    }
    inlet
    {
        type            turbulentMixingLengthDissipationRateInlet;
        mixingLength    0.01;
        phi             phi;
        k               k;
        value           uniform 0.000101881;
    }
    outlet
    {
        type            zeroGradient;
    }
}


// ************************************************************************* //
