/*--------------------------------*- C++ -*----------------------------------*=========                 |
  \      /  F ield         | OpenFOAM: The Open Source CFD Toolbox
   \    /   O peration     | Website:  https://openfoam.org
    \  /    A nd           | Version:  6
     \/     M anipulation  |
\*---------------------------------------------------------------------------*/
FoamFile
{
    version     2.0;
    format      ascii;
    class       volScalarField;
    location    "1600";
    object      PMV;
}
// * * * * * * * * * * * * * * * * * * * * * * * * * * * * * * * * * * * * * //

dimensions      [0 0 0 0 0 0 0];

internalField   nonuniform List<scalar> 
459
(
1.6534593221524059
1.4378328473971351
1.4117776027670914
1.3888092746652152
1.3732893939448725
1.3643082437247738
1.3614659452087277
1.3651639195431355
1.3746859934730606
1.3916697522434724
1.417048075057416
1.451888398799197
1.4987419244011546
1.5368605227130014
1.5411598222349767
1.6037215816027595
1.5913068699113628
1.5865316526428137
1.5884417611876038
1.5908293563125129
1.5932169061574384
1.5918159851203904
1.5874534169838819
1.5868790666505495
1.5877734503402223
1.5887638247794418
1.5906557518403392
1.5930952502025675
1.5959806500326061
1.6012478577396745
1.6106558174838188
1.618522089806569
1.6218638865176553
1.6333207511777028
1.6158992873295799
1.4587458477339612
1.4507910833971327
1.42991084123619
1.417121617920956
1.4101355446646795
1.4081889177857896
1.4100297702959679
1.4149128999987635
1.4230517626016777
1.4380265321388679
1.4613776213257226
1.4953575868798423
1.5292170028427305
1.5296947347577405
1.5292170028427305
1.526828319602249
1.5666085610786578
1.5822338036236696
1.5788909325405462
1.580678811678092
1.5747946143373304
1.5699364354821084
1.5684541179940719
1.5690056538325063
1.5696647536064476
1.5704567099383686
1.5706163494747798
1.5713255995354058
1.5717232344794863
1.572796584657525
1.575313149804685
1.5825288248364493
1.5999018028393044
1.6051539679666456
1.596629066737551
1.6583400007941027
1.4615566553317672
1.486184041720335
1.4765953035555035
1.4739927635402823
1.4735438094095965
1.4753769546727447
1.4760979185723484
1.4722150239204723
1.4651423515541004
1.4622500141290813
1.4676939476621809
1.4852370262669305
1.5155944160170332
1.5273060593999894
1.5292170028427305
1.5301724650910662
1.4779562600548755
1.5191129068561076
1.532111246731897
1.541157776093339
1.5507239717616386
1.5575795061811344
1.5604441412034342
1.5679053790882485
1.5734266883580588
1.5759234832042772
1.5765114653671652
1.5770071988857053
1.5769359027775147
1.575496530382349
1.5711293816338217
1.5725250381705496
1.59017910279853
1.5821579995188495
1.535391936821674
1.734281460015416
1.4670093037033707
1.5140033051391641
1.5239488344412893
1.5417394877615886
1.5575678549986185
1.5698352680137397
1.5659667768641548
1.5408339626754501
1.50502243064374
1.4746392965589075
1.4585588586228777
1.4610846071213168
1.4812450138725013
1.512767170591298
1.5306501938409751
1.5168422214105908
1.476279137031759
1.4746675638308588
1.5020632905736
1.5281230247056563
1.5487943122944412
1.56684642474831
1.580273309525493
1.5849285634723242
1.5832780055096882
1.5821100171105178
1.5825759419560528
1.5837898277671072
1.5870042966650741
1.593168174516248
1.6047722978286116
1.6270880671418049
1.6201753126743763
1.6051269434668713
1.5623499562912981
1.4915565181032908
1.8235455571746253
1.4876418098991298
1.5410372183223018
1.569791059586774
1.6176689140333984
1.6715611368680354
1.6967894077392596
1.6533936733235572
1.582776460059969
1.5135815306828304
1.4641835627742315
1.436630966699685
1.432457273223383
1.4487205591306616
1.4777383210809005
1.5045469634871245
1.5116772832409564
1.5090335889287545
1.5170418839040583
1.5412221031666888
1.5704031765259514
1.5972217665084787
1.6190630666756056
1.6352301183379074
1.643821874608129
1.6468263673312766
1.6467045676401997
1.6461644643189781
1.6445331256667184
1.642795402254934
1.642032377390014
1.6429302271106505
1.6447276945168658
1.6309456075574693
1.6040999439089794
1.544815686825437
1.5379848922632235
1.6672071835592672
1.6538202828857067
1.491015958481569
1.9136241899233395
1.529983050183109
1.59352499021484
1.6231870428344413
1.69201865507623
1.7201627898202647
1.7130151633324546
1.634038819918675
1.557176180689822
1.4863088458456197
1.432723315880611
1.4054087096558598
1.4048538554211907
1.4270524277724155
1.4640779592985158
1.5045606331023227
1.5358860116608601
1.5574505406108354
1.5813992763360456
1.6113607806287185
1.6280698283112733
1.6423899605088876
1.6543220172113955
1.6633895162880803
1.6705475308046742
1.6767507539138948
1.681045078571722
1.6839078633264402
1.6848621073304475
1.6834307380226767
1.680090799462691
1.675319273249751
1.6666878042557551
1.6409197334920929
1.6067318315352404
1.5444420360366018
1.5420517339845776
1.5570396024573547
1.5561146811084563
1.5679971322319672
2.0028972199435247
1.62557706775835
1.7451948456149387
1.7185780250290092
1.71538842013606
1.6911868043751521
1.6394501802181634
1.5682009495315383
1.4899463275820328
1.4217913794535788
1.377521741317613
1.3644725177876524
1.3812651619844662
1.4220501099922473
1.4788164713322443
1.5400538688265704
1.5817562559303344
1.6051539679666456
1.6261603428530718
1.644299175257693
1.660048946607919
1.672933428924732
1.6829536105206169
1.6901102912563193
1.6958352752057841
1.7001288003473038
1.7025140126106673
1.703468081538058
1.7029910482178106
1.7001288003473038
1.6948811336554044
1.687724786360859
1.6791365116198858
1.667267034641029
1.6269981516742853
1.5690362343529487
1.54641256259042
1.5354636825620398
1.5096678277168114
1.5945451892330107
2.1351519646768704
1.944969528225988
1.9003540042254372
1.8007392843183636
1.7433014680776178
1.6638209648627211
1.5617461914614508
1.4569980211532705
1.3693421503792094
1.3144225917348662
1.299463961879678
1.3236952870838297
1.3782295382746785
1.4539184940711256
1.5427948802623341
1.5860541210158978
1.6180446825741408
1.644299175257693
1.664343945808073
1.6796136566319435
1.69201865507623
1.7010828920894137
1.7082382884747804
1.7130082642937812
1.7163471086649225
1.718254968106043
1.7192088836880155
1.718254968106043
1.7163471086649225
1.7130082642937812
1.7082382884747804
1.7001288003473038
1.6924957404442962
1.6824764808223411
1.6715018964913444
1.660526177151422
1.640663093930543
1.6292657375300614
1.568564115659032
1.4833519548367131
2.332321070151364
2.2003446304592313
2.0343296358429632
1.8552301692315762
1.6542145980570437
1.4418856615438476
1.272415410690861
1.1668839651961738
1.1309083042692634
1.1557607641531518
1.2282919762406208
1.3326936102767346
1.4536592740671221
1.538771338652309
1.5932169061574384
1.6371394536510342
1.665298366870968
1.6843849864297011
1.6986976456860012
1.7096693055884409
1.718254968106043
1.7202417272493677
1.719369590364056
1.717445763254992
1.7149737834198409
1.7109735657640208
1.7059758094436495
1.6992737931579331
1.6915508444724412
1.6818257022056362
1.6701975610153523
1.657872987751552
1.646617913804681
1.6322776555177265
1.6160476608969294
1.6021715217348347
1.5924933888249453
1.5872815770265027
1.5767399636253194
1.5462286007355097
-2.969156863567397
-1.809436192593552
-1.124943797236292
-0.38691631702347734
0.16772167238371632
0.5984927570720804
0.9481249717822825
1.2126871328751074
1.3753142715689837
1.5000724326988544
1.5750704025902222
1.6256829666013144
1.6493803243346596
1.6652783624646212
1.6776413674311674
1.6858922619277443
1.6916030637834314
1.6941722678528202
1.6949710635956174
1.6938431591800251
1.6917594946727956
1.6890537093880336
1.6850703438190588
1.6801494972164974
1.6747612452753429
1.6690396533132825
1.663258341191003
1.6582685370655617
1.6539798259965846
1.6513083309851653
1.6496013038559698
1.6480273428484051
1.6476236684465544
1.6496303300676403
1.6601486333730089
1.695150327188023
1.7673501722367713
1.609799109882095
-2.458285304194174
-0.9933595409474797
0.04362062892987828
0.5718719177821668
0.8972541274016888
1.0992700624051068
1.2525903240850573
1.3717020612586368
1.4632624825038199
1.5319054736281463
1.5787876846838234
1.6109526648555395
1.6343153645599258
1.6502230992318727
1.6614407699007525
1.6687026937476328
1.6734852237826436
1.6764450958338377
1.6779168002600344
1.6787700809263668
1.6783452880781204
1.677579442924087
1.6764656214669875
1.6745382756344414
1.6728533160720458
1.671077713245491
1.6694719311767205
1.668508475099294
1.6687838988621846
1.672207961013928
1.679159729709385
1.6905477214063613
1.7024734845366059
1.712561604324118
1.7244145665899109
1.7628529670547326
1.6975132713281729
1.648435601738519
-0.8643016773026775
-1.0025214274773357
-0.882381521545618
0.3641293892583248
0.8786492423062459
1.0954888091096047
1.2286299224760144
1.3318051090805696
1.4152860921454244
1.4826889367027807
1.537573775343944
1.5799652854946826
1.610377641703509
1.6308234354615576
1.6442496537586453
1.651909265235679
1.6554374618184549
1.6566116533169288
1.6566222227600595
1.6559995862194448
1.6550469982314857
1.6552320556354168
1.654785516613458
1.655181102480928
1.655384805705449
1.6559235018689547
1.6574118968197853
1.659083356852174
1.6618321542007137
1.6666728091855618
1.6737545783580285
1.6853541279235174
1.7068505035488388
1.7453269685050814
1.772612537904212
1.7792857486226583
1.745871378976437
1.7036700001152774
1.6622604209706184
1.6674110400862476
)
;

boundaryField
{
    ".*"
    {
        type            zeroGradient;
    }
}


// ************************************************************************* //
