// -*- C++ -*-
// File generated by PyFoam - sorry for the ugliness

FoamFile
{
 version 2.0;
 format ascii;
 class volScalarField;
 location "1600";
 object T;
}

dimensions [ 0 0 0 1 0 0 0 ];

internalField nonuniform List<scalar> 459
(
  302.666
  302.386
  302.371
  302.367
  302.363
  302.359
  302.354
  302.348
  302.339
  302.329
  302.319
  302.31
  302.306
  302.307
  302.316
  302.447
  302.421
  302.411
  302.415
  302.42
  302.425
  302.43
  302.435
  302.44
  302.445
  302.449
  302.454
  302.459
  302.463
  302.468
  302.473
  302.478
  302.485
  302.509
  302.852
  302.427
  302.399
  302.4
  302.401
  302.401
  302.398
  302.389
  302.373
  302.35
  302.327
  302.307
  302.295
  302.291
  302.292
  302.291
  302.286
  302.449
  302.402
  302.395
  302.399
  302.406
  302.411
  302.414
  302.416
  302.417
  302.419
  302.42
  302.422
  302.423
  302.425
  302.428
  302.432
  302.439
  302.45
  302.49
  303.047
  302.48
  302.433
  302.441
  302.453
  302.462
  302.465
  302.455
  302.428
  302.387
  302.346
  302.312
  302.291
  302.284
  302.287
  302.291
  302.293
  302.379
  302.376
  302.385
  302.399
  302.413
  302.424
  302.423
  302.422
  302.422
  302.422
  302.421
  302.421
  302.421
  302.421
  302.422
  302.425
  302.43
  302.44
  302.483
  303.244
  302.547
  302.471
  302.484
  302.511
  302.536
  302.551
  302.54
  302.496
  302.43
  302.365
  302.315
  302.286
  302.278
  302.284
  302.294
  302.303
  302.32
  302.34
  302.367
  302.395
  302.42
  302.442
  302.459
  302.473
  302.485
  302.495
  302.504
  302.511
  302.517
  302.521
  302.524
  302.525
  302.491
  302.463
  302.451
  302.485
  303.435
  302.634
  302.519
  302.527
  302.566
  302.61
  302.642
  302.625
  302.557
  302.46
  302.374
  302.311
  302.277
  302.27
  302.282
  302.301
  302.322
  302.347
  302.375
  302.407
  302.439
  302.469
  302.493
  302.513
  302.531
  302.545
  302.556
  302.565
  302.57
  302.572
  302.57
  302.565
  302.556
  302.531
  302.495
  302.468
  302.482
  302.58
  302.624
  302.631
  303.609
  302.747
  302.604
  302.592
  302.632
  302.691
  302.719
  302.674
  302.579
  302.465
  302.362
  302.292
  302.259
  302.259
  302.282
  302.316
  302.352
  302.388
  302.426
  302.463
  302.498
  302.528
  302.553
  302.572
  302.587
  302.6
  302.609
  302.615
  302.617
  302.614
  302.607
  302.597
  302.582
  302.558
  302.524
  302.49
  302.486
  302.526
  302.546
  302.586
  303.771
  302.928
  302.79
  302.764
  302.781
  302.817
  302.781
  302.68
  302.544
  302.409
  302.303
  302.242
  302.226
  302.247
  302.293
  302.347
  302.401
  302.45
  302.494
  302.532
  302.565
  302.592
  302.613
  302.628
  302.64
  302.649
  302.654
  302.656
  302.655
  302.649
  302.638
  302.623
  302.605
  302.582
  302.552
  302.519
  302.504
  302.515
  302.528
  302.562
  304.004
  303.378
  303.228
  303.147
  303.08
  302.954
  302.774
  302.575
  302.392
  302.254
  302.176
  302.159
  302.189
  302.251
  302.33
  302.41
  302.477
  302.532
  302.574
  302.606
  302.632
  302.651
  302.666
  302.676
  302.683
  302.687
  302.689
  302.687
  302.683
  302.676
  302.666
  302.649
  302.633
  302.612
  302.589
  302.566
  302.559
  302.579
  302.606
  302.758
  304.34
  304.043
  303.746
  303.436
  303.072
  302.671
  302.333
  302.096
  301.97
  301.941
  301.988
  302.083
  302.196
  302.311
  302.425
  302.517
  302.576
  302.616
  302.646
  302.669
  302.687
  302.699
  302.708
  302.713
  302.716
  302.716
  302.715
  302.712
  302.709
  302.705
  302.702
  302.702
  302.705
  302.714
  302.732
  302.762
  302.803
  302.844
  302.87
  302.933
  293.374
  295.299
  297.249
  298.707
  299.766
  300.564
  301.172
  301.629
  301.969
  302.23
  302.387
  302.493
  302.571
  302.625
  302.662
  302.687
  302.706
  302.719
  302.729
  302.735
  302.739
  302.742
  302.743
  302.743
  302.743
  302.743
  302.743
  302.744
  302.745
  302.748
  302.754
  302.764
  302.782
  302.807
  302.837
  302.865
  302.886
  302.908
  294.563
  297.007
  299.185
  300.29
  300.991
  301.484
  301.84
  302.11
  302.313
  302.462
  302.561
  302.627
  302.673
  302.703
  302.724
  302.738
  302.748
  302.755
  302.759
  302.762
  302.763
  302.764
  302.765
  302.765
  302.766
  302.767
  302.768
  302.769
  302.77
  302.773
  302.777
  302.785
  302.797
  302.814
  302.835
  302.858
  302.856
  302.889
  298.266
  298.191
  298.185
  300.497
  301.423
  301.822
  302.066
  302.252
  302.398
  302.511
  302.599
  302.664
  302.709
  302.739
  302.76
  302.774
  302.783
  302.789
  302.793
  302.795
  302.795
  302.796
  302.795
  302.795
  302.794
  302.793
  302.793
  302.792
  302.791
  302.791
  302.791
  302.791
  302.793
  302.796
  302.801
  302.815
  302.826
  302.834
  302.838
  302.877
)
;

boundaryField
{
  floor
  {
    type wallHeatTransfer;
    Tinf uniform 305.2;
    alphaWall uniform 0.24;
    value nonuniform List<scalar> 29
(
  302.59
  302.94
  302.858
  302.816
  302.82
  302.834
  302.852
  302.875
  302.901
  302.926
  302.95
  302.974
  302.997
  303.019
  303.04
  303.061
  303.083
  303.107
  303.125
  303.177
  303.177
  303.056
  302.996
  302.963
  302.59
  302.94
  302.922
  302.68
  302.551
)
;
  }
  ceiling
  {
    type wallHeatTransfer;
    Tinf uniform 303.2;
    alphaWall uniform 0.24;
    value nonuniform List<scalar> 43
(
  298.588
  298.502
  298.487
  300.651
  301.528
  301.906
  302.137
  302.314
  302.453
  302.563
  302.648
  302.712
  302.758
  302.79
  302.812
  302.828
  302.839
  302.846
  302.851
  302.854
  302.855
  302.855
  302.854
  302.853
  302.852
  302.85
  302.848
  302.846
  302.844
  302.842
  302.84
  302.838
  302.838
  302.839
  302.841
  302.851
  302.86
  302.868
  302.874
  302.911
  304.289
  304.01
  295.074
)
;
  }
  sWall
  {
    type wallHeatTransfer;
    Tinf uniform 315.2;
    alphaWall uniform 0.36;
    value uniform 299.877;
  }
  nWall
  {
    type wallHeatTransfer;
    Tinf uniform 307.2;
    alphaWall uniform 0.36;
    value nonuniform List<scalar> 6
(
  303.439
  303.375
  303.278
  303.511
  303.489
  303.53
)
;
  }
  sideWalls
  {
    type empty;
  }
  glass1
  {
    type wallHeatTransfer;
    Tinf uniform 315.2;
    alphaWall uniform 4.3;
    value nonuniform List<scalar> 9
(
  311.115
  310.427
  309.999
  309.678
  309.412
  309.173
  309.004
  309.092
  309.344
)
;
  }
  glass2
  {
    type wallHeatTransfer;
    Tinf uniform 307.2;
    alphaWall uniform 4.3;
    value nonuniform List<scalar> 2
(
  305.437
  305.58
)
;
  }
  sun
  {
    type wallHeatTransfer;
    Tinf uniform 305.2;
    alphaWall uniform 0.24;
    value nonuniform List<scalar> 14
(
  302.923
  302.652
  302.635
  302.621
  302.609
  302.598
  302.586
  302.575
  302.563
  302.552
  302.544
  302.542
  302.548
  302.564
)
;
  }
  heatsource1
  {
    type fixedGradient;
    gradient uniform 0;
  }
  heatsource2
  {
    type fixedGradient;
    gradient uniform 0;
  }
  Table_master
  {
    type zeroGradient;
  }
  Table_slave
  {
    type zeroGradient;
  }
  inlet
  {
    type fixedValue;
    value uniform 290.15;
  }
  outlet
  {
    type zeroGradient;
  }
} 	// ************************************************************************* //

