/*--------------------------------*- C++ -*----------------------------------*\
  =========                 |
  \\      /  F ield         | OpenFOAM: The Open Source CFD Toolbox
   \\    /   O peration     | Website:  https://openfoam.org
    \\  /    A nd           | Version:  6
     \\/     M anipulation  |
\*---------------------------------------------------------------------------*/
FoamFile
{
    version     2.0;
    format      ascii;
    class       volScalarField;
    location    "1100";
    object      alphat;
}
// * * * * * * * * * * * * * * * * * * * * * * * * * * * * * * * * * * * * * //

dimensions      [1 -1 -1 0 0 0 0];

internalField   nonuniform List<scalar> 
459
(
0.00130604
0.00142968
0.00145473
0.00152568
0.00159196
0.00165431
0.00171573
0.0017748
0.00181614
0.00183332
0.00182043
0.0017737
0.00169273
0.00158439
0.00146592
0.000588175
0.000715788
0.000798701
0.000788641
0.000759033
0.000722075
0.000677591
0.000633996
0.000594444
0.000559248
0.000527997
0.000500156
0.000475444
0.000453164
0.000432569
0.000412674
0.000392088
0.000380494
0.000349901
0.00178507
0.00444689
0.00428681
0.00500424
0.00570556
0.00640249
0.00701142
0.00747601
0.00789002
0.00822172
0.00842612
0.00845105
0.00821545
0.0075167
0.00561743
0.00149622
0.000872364
0.00063766
0.00130075
0.00178545
0.00213102
0.00230752
0.00229479
0.00186314
0.00161531
0.00143659
0.00129846
0.00118791
0.00109737
0.00101682
0.000942012
0.000870125
0.000806934
0.000749602
0.000898661
0.000470675
0.00218088
0.00608761
0.00534355
0.0067447
0.00745409
0.00798265
0.00839373
0.00872259
0.00906807
0.00941848
0.0097317
0.00994953
0.0100049
0.00980107
0.00907598
0.00692502
0.00149097
0.00126516
0.00180212
0.00228243
0.00270571
0.00298567
0.00289224
0.000962229
0.000850879
0.000761564
0.00068957
0.000630957
0.000582711
0.000542695
0.000509503
0.000482576
0.000520771
0.000600003
0.00101629
0.000552127
0.0025582
0.00777594
0.00539751
0.00716717
0.00782379
0.00807069
0.00823525
0.00841767
0.00870143
0.00906703
0.00946695
0.00982901
0.010081
0.0101483
0.00993913
0.00914181
0.00660528
0.00178079
0.00223657
0.00288731
0.0034855
0.00393435
0.00418878
0.00389474
0.00107958
0.000985025
0.000918414
0.000867915
0.000824524
0.000783944
0.000744891
0.000703768
0.000655796
0.00061548
0.000631664
0.00119352
0.000611696
0.00294049
0.00991681
0.00599462
0.00693623
0.00778313
0.00789891
0.00785963
0.00797289
0.00822924
0.00860934
0.00906607
0.00950124
0.00981473
0.0099284
0.00981903
0.0094417
0.00859082
0.00703464
0.00647829
0.0062565
0.0061365
0.00603988
0.00592382
0.00566018
0.00476488
0.00434838
0.00410832
0.00391981
0.00371819
0.00342726
0.00303122
0.00255467
0.00203109
0.00150821
0.00111325
0.00116412
0.000799933
0.000748631
0.000893247
0.000999725
0.00334314
0.0122257
0.00824295
0.00703416
0.00762088
0.0079202
0.00777172
0.0078589
0.00805831
0.00840649
0.00888056
0.0093681
0.00972118
0.00982753
0.00966614
0.00930731
0.00885633
0.00838253
0.00806707
0.00779415
0.00750141
0.0072023
0.00690459
0.00657914
0.00615662
0.00580105
0.00549778
0.00521457
0.00493183
0.00462793
0.00423038
0.00372061
0.0031009
0.0024135
0.00180529
0.00133316
0.00105922
0.000941305
0.00136739
0.00104828
0.00370079
0.0137937
0.0113841
0.00907794
0.00866061
0.00847289
0.00817284
0.00802145
0.00811519
0.00846942
0.00900439
0.00955434
0.00992718
0.00998947
0.00973141
0.00928944
0.0088929
0.00867476
0.00853308
0.00828294
0.00789832
0.00744223
0.0069623
0.00648868
0.00604692
0.00567601
0.00535733
0.00507097
0.00481173
0.00458419
0.00438489
0.00404931
0.0035521
0.00294456
0.00236968
0.00184562
0.00151279
0.00145293
0.00153373
0.00120597
0.00376022
0.0120699
0.0108766
0.0101603
0.00942616
0.00864405
0.00810128
0.00795427
0.00821385
0.00878773
0.00949819
0.0101156
0.0104295
0.0103369
0.00988986
0.00931438
0.00891139
0.00874344
0.00850029
0.00801469
0.00738017
0.00670458
0.00607291
0.00554284
0.00513029
0.00481375
0.00456005
0.00435383
0.00419572
0.00409427
0.00405871
0.00404558
0.00374188
0.00333204
0.00298343
0.0028413
0.00305749
0.00374372
0.0047271
0.00186165
0.00364927
0.00430964
0.00476899
0.00487263
0.00509087
0.00557937
0.00637491
0.0074373
0.00863756
0.00978709
0.0106824
0.0111431
0.0110736
0.0105469
0.00978844
0.00919158
0.00871508
0.00823712
0.00759826
0.00680824
0.00599361
0.00527531
0.00471279
0.00430181
0.00400291
0.00377333
0.00358405
0.0034203
0.00327377
0.00313754
0.00300568
0.0028807
0.00278087
0.00271665
0.00271192
0.0027518
0.00275212
0.00263745
0.00245095
0.00171212
0.00177545
0.00435201
0.00769003
0.00990646
0.0114002
0.0123482
0.0127889
0.0127947
0.0124531
0.0118394
0.0109721
0.00994253
0.00900982
0.00828007
0.00756137
0.00675247
0.00590033
0.00509566
0.0044237
0.00392835
0.00358115
0.00333492
0.00315148
0.00300707
0.00288936
0.00279341
0.00271872
0.00266826
0.00264866
0.00265966
0.0026867
0.00272641
0.0027662
0.00276961
0.00268124
0.00248159
0.00218422
0.00138117
0.00261851
0.00777237
0.0108289
0.0116273
0.0119241
0.0118296
0.0113562
0.0106282
0.00977064
0.00889139
0.00805474
0.00728647
0.00659891
0.00591766
0.00520832
0.00454133
0.00397378
0.00352116
0.00316904
0.00291355
0.00273014
0.00259876
0.00250824
0.00245326
0.00243067
0.00243669
0.00246521
0.00250701
0.00257626
0.00266652
0.00277298
0.00288674
0.00298874
0.00306248
0.00305157
0.00305661
0.00275545
0.00139827
0.00231542
0.00245592
0.00255689
0.00273609
0.00262903
0.00252716
0.00244926
0.00233762
0.00218536
0.00200108
0.00179342
0.00157735
0.00137516
0.00120649
0.00107668
0.000980861
0.000911628
0.000862789
0.000830039
0.000810752
0.000803226
0.000803309
0.000809739
0.000821728
0.00083887
0.000861009
0.000888207
0.000920797
0.000959575
0.00100607
0.00105913
0.00111937
0.00118718
0.00126309
0.00134704
0.00145904
0.00149074
0.00145408
0.00135671
0.00125164
)
;

boundaryField
{
    floor
    {
        type            compressible::alphatWallFunction;
        Prt             0.85;
        value           nonuniform List<scalar> 
29
(
0.000206357
8.25697e-05
0.000101482
0.000113549
0.000112093
0.000107796
0.000102403
9.58681e-05
8.94128e-05
8.35091e-05
7.82148e-05
7.34794e-05
6.92314e-05
6.54358e-05
6.19924e-05
5.87903e-05
5.56785e-05
5.24385e-05
5.06041e-05
4.5729e-05
4.57283e-05
6.47011e-05
7.71397e-05
8.60912e-05
0.000206355
8.25687e-05
8.99571e-05
0.000179073
0.000248335
)
;
    }
    ceiling
    {
        type            compressible::alphatWallFunction;
        Prt             0.85;
        value           nonuniform List<scalar> 
43
(
0.000317688
0.000335644
0.000348483
0.000371293
0.000357836
0.000344945
0.000335048
0.000320792
0.000301226
0.000277341
0.000250135
0.000221455
0.000194217
0.000171148
0.000153145
0.000139695
0.000129881
0.000122905
0.000118201
0.000115421
0.000114334
0.000114345
0.000115274
0.000117004
0.000119471
0.000122649
0.00012654
0.000131185
0.000136686
0.000143247
0.000150692
0.000159094
0.000168489
0.000178932
0.000190401
0.000205577
0.000209848
0.000204908
0.000191719
0.000177366
0.000484826
0.000564873
0.000356059
)
;
    }
    sWall
    {
        type            compressible::alphatWallFunction;
        Prt             0.85;
        value           uniform 0.000316414;
    }
    nWall
    {
        type            compressible::alphatWallFunction;
        Prt             0.85;
        value           nonuniform List<scalar> 6(0.000142005 0.000148818 0.000170714 0.000194693 0.000197009 0.000177018);
    }
    sideWalls
    {
        type            empty;
    }
    glass1
    {
        type            compressible::alphatWallFunction;
        Prt             0.85;
        value           nonuniform List<scalar> 9(0.000179985 0.000243328 0.000294396 0.000342248 0.000390047 0.000439742 0.000483419 0.000490779 0.000477556);
    }
    glass2
    {
        type            compressible::alphatWallFunction;
        Prt             0.85;
        value           nonuniform List<scalar> 2(0.000257006 0.000237461);
    }
    sun
    {
        type            compressible::alphatWallFunction;
        Prt             0.85;
        value           nonuniform List<scalar> 
14
(
0.000184688
0.000201471
0.000204853
0.0002144
0.000223274
0.000231585
0.000239737
0.000247549
0.000252997
0.000255257
0.000253561
0.0002474
0.000236684
0.000222258
)
;
    }
    heatsource1
    {
        type            compressible::alphatWallFunction;
        Prt             0.85;
        value           nonuniform List<scalar> 3(0.000106435 0.000127287 0.000142382);
    }
    heatsource2
    {
        type            compressible::alphatWallFunction;
        Prt             0.85;
        value           nonuniform List<scalar> 4(0.000210611 0.0001243 0.000124299 0.000209904);
    }
    Table_master
    {
        type            compressible::alphatWallFunction;
        Prt             0.85;
        value           nonuniform List<scalar> 9(0.000137085 0.000121219 0.000108315 9.7781e-05 8.91061e-05 8.18915e-05 7.58514e-05 7.07992e-05 6.66703e-05);
    }
    Table_slave
    {
        type            compressible::alphatWallFunction;
        Prt             0.85;
        value           nonuniform List<scalar> 9(0.000153578 0.000140309 0.000130873 0.000123665 0.000117432 0.000111568 0.000105889 9.98712e-05 9.27964e-05);
    }
    inlet
    {
        type            fixedValue;
        value           uniform 1.94e-05;
    }
    outlet
    {
        type            zeroGradient;
    }
}


// ************************************************************************* //
