/*--------------------------------*- C++ -*----------------------------------*\
  =========                 |
  \\      /  F ield         | OpenFOAM: The Open Source CFD Toolbox
   \\    /   O peration     | Website:  https://openfoam.org
    \\  /    A nd           | Version:  6
     \\/     M anipulation  |
\*---------------------------------------------------------------------------*/
FoamFile
{
    version     2.0;
    format      ascii;
    class       volScalarField;
    location    "1100";
    object      epsilon;
}
// * * * * * * * * * * * * * * * * * * * * * * * * * * * * * * * * * * * * * //

dimensions      [0 2 -3 0 0 0 0];

internalField   nonuniform List<scalar> 
459
(
0.000500595
0.000654835
0.000689764
0.000795652
0.000903879
0.00101426
0.00113142
0.00125229
0.00134174
0.00138003
0.00135099
0.00124947
0.00108597
0.0008905
0.000705336
4.56139e-05
8.21898e-05
0.000114177
0.00010992
9.80029e-05
8.43766e-05
6.97261e-05
5.71174e-05
4.70823e-05
3.9206e-05
3.2995e-05
2.8047e-05
2.40926e-05
2.08624e-05
1.81459e-05
1.57561e-05
1.35143e-05
1.23512e-05
9.60723e-06
0.00128062
0.00183152
0.000621727
0.000602478
0.000634841
0.000685297
0.000756706
0.000847977
0.000932565
0.000985194
0.000985717
0.000927209
0.000816637
0.000679618
0.000586095
0.000749854
0.000148608
5.81268e-05
0.000136494
0.000140133
0.000124998
0.000104825
8.67428e-05
7.70525e-05
6.24988e-05
4.97746e-05
3.96716e-05
3.18433e-05
2.57995e-05
2.11563e-05
1.75791e-05
1.49506e-05
1.33682e-05
1.27365e-05
3.52588e-05
2.33818e-05
0.00234003
0.00448411
0.000790883
0.000585213
0.000616853
0.000697258
0.000812247
0.000951706
0.00107639
0.00115179
0.00115943
0.00109921
0.000982087
0.000832463
0.000701426
0.000631555
0.000742076
0.000453707
0.000311423
0.000227976
0.000172138
0.000133453
0.000110907
0.00019969
0.000138076
9.89983e-05
7.34917e-05
5.62983e-05
4.43456e-05
3.58222e-05
2.96429e-05
2.51869e-05
1.92197e-05
1.63211e-05
6.80318e-05
3.77425e-05
0.00378444
0.00925341
0.0012856
0.000614806
0.000623779
0.000742083
0.000926213
0.00113976
0.00130219
0.00138237
0.00137658
0.00129573
0.00115276
0.000970329
0.000803728
0.000684839
0.000658823
0.00126478
0.000702187
0.000413526
0.000272242
0.000193494
0.0001459
0.00012418
0.00028217
0.000214354
0.000173757
0.000146652
0.000125745
0.000108083
9.27237e-05
7.82005e-05
6.32739e-05
3.74994e-05
2.53446e-05
0.000118028
5.13281e-05
0.00575853
0.0163422
0.00257475
0.000787239
0.000690174
0.000853188
0.00118832
0.00149261
0.00165843
0.00170648
0.00166075
0.00153737
0.00134847
0.00111817
0.000884937
0.000682583
0.000535629
0.000470608
0.000375234
0.000288927
0.00022127
0.000171279
0.000135719
0.000113521
0.000110364
0.000103459
9.64542e-05
8.93408e-05
8.15409e-05
7.30311e-05
6.47044e-05
5.69261e-05
4.97968e-05
3.97755e-05
3.10027e-05
8.211e-05
5.84472e-05
9.41792e-05
0.000160046
0.000224391
0.0084778
0.024056
0.0057516
0.00163575
0.00117112
0.00137122
0.00193281
0.00217399
0.00222618
0.00217699
0.00205976
0.00187285
0.00161543
0.00130852
0.000994366
0.00071894
0.000515314
0.000389696
0.000308515
0.000245299
0.000193191
0.00015322
0.00012514
0.000108143
0.000101322
9.92797e-05
9.82365e-05
9.6138e-05
9.16445e-05
8.36741e-05
7.27064e-05
6.1667e-05
5.17839e-05
4.30437e-05
3.79852e-05
5.79539e-05
5.99114e-05
7.23427e-05
0.00029887
0.000258608
0.0115192
0.0285764
0.0115808
0.00521973
0.0038008
0.00375561
0.00361292
0.00337032
0.00311078
0.00286751
0.00261967
0.00232419
0.00195793
0.00154018
0.00112315
0.000766622
0.000512539
0.000358579
0.000269336
0.000209743
0.000165355
0.000134109
0.000114877
0.000106
0.000105312
0.000109117
0.000114146
0.000118718
0.000121374
0.000119852
0.00010959
9.57302e-05
8.24946e-05
7.14264e-05
6.76513e-05
7.97151e-05
0.000104705
0.0001783
0.000421388
0.00039369
0.0121116
0.0300979
0.0172125
0.0122863
0.00960917
0.00751744
0.00597703
0.00493423
0.00425139
0.0037759
0.00336307
0.00290391
0.00236107
0.00177271
0.0012135
0.000759481
0.000464713
0.000300259
0.000215468
0.000167344
0.0001361
0.000117382
0.000108783
0.000108141
0.000113441
0.000122744
0.000134823
0.000149458
0.000166746
0.000186355
0.000206539
0.000214832
0.000224663
0.000248364
0.000298597
0.000464964
0.000908582
0.0018455
0.00545241
0.00145111
0.0111082
0.018242
0.0146734
0.0112
0.00876284
0.00720996
0.00626303
0.00569403
0.00529842
0.00489021
0.00433393
0.0035787
0.00269764
0.00183644
0.0011053
0.00057641
0.000336235
0.000222875
0.000165235
0.000132991
0.000114635
0.000105969
0.000104508
0.00010848
0.000116752
0.00012882
0.000144929
0.000166149
0.000194304
0.00023203
0.000282935
0.000352091
0.000447087
0.000594014
0.000810027
0.0011006
0.00142554
0.00169413
0.00188824
0.00113079
0.00386689
0.00674221
0.00845001
0.00887113
0.00882872
0.00836952
0.00744181
0.00614382
0.0046546
0.00312887
0.00189232
0.00111201
0.000635998
0.000369835
0.000242584
0.000179884
0.000146117
0.00012635
0.000115034
0.000109841
0.000109142
0.000111926
0.000117751
0.000126634
0.000139045
0.000156015
0.000179323
0.000211863
0.000258238
0.000324582
0.000417901
0.000547402
0.000715278
0.000900721
0.00104596
0.00107779
0.000941874
0.000593496
0.00372207
0.00829262
0.00839517
0.00700505
0.00615268
0.00523815
0.00418948
0.00313572
0.00218846
0.00141464
0.000868576
0.000539314
0.000355638
0.000259739
0.000211624
0.000185257
0.000168052
0.000154952
0.000144423
0.000136907
0.000132335
0.000130693
0.000132223
0.00013743
0.000147087
0.000162295
0.000184635
0.000216443
0.00026115
0.000323366
0.000409274
0.000524945
0.000670552
0.000836387
0.000959743
0.00106692
0.000810793
0.000615734
0.00266904
0.00318253
0.00359119
0.0045027
0.00403182
0.00359555
0.00328136
0.00285822
0.0023388
0.00179773
0.0012953
0.000881877
0.000584644
0.000394957
0.000280767
0.000212312
0.000170471
0.000144524
0.000128687
0.000119925
0.000116617
0.000116653
0.000119476
0.000124861
0.000132838
0.000143635
0.000157679
0.00017568
0.000198823
0.000229144
0.000267346
0.000315614
0.000376528
0.000453481
0.000550088
0.000699118
0.000745755
0.000692131
0.00056221
0.000441609
)
;

boundaryField
{
    floor
    {
        Cmu             0.09;
        kappa           0.41;
        E               9.8;
        type            epsilonWallFunction;
        value           nonuniform List<scalar> 
29
(
0.000705336
4.56139e-05
8.21898e-05
0.000114177
0.00010992
9.80029e-05
8.43766e-05
6.97261e-05
5.71174e-05
4.70823e-05
3.9206e-05
3.2995e-05
2.8047e-05
2.40926e-05
2.08624e-05
1.81459e-05
1.57561e-05
1.35143e-05
1.23512e-05
9.60723e-06
9.60723e-06
2.33818e-05
3.77425e-05
5.13281e-05
0.000705336
4.56139e-05
5.81268e-05
0.000453707
0.00126478
)
;
    }
    ceiling
    {
        Cmu             0.09;
        kappa           0.41;
        E               9.8;
        type            epsilonWallFunction;
        value           nonuniform List<scalar> 
43
(
0.00266904
0.00318253
0.00359119
0.0045027
0.00403182
0.00359555
0.00328136
0.00285822
0.0023388
0.00179773
0.0012953
0.000881877
0.000584644
0.000394957
0.000280767
0.000212312
0.000170471
0.000144524
0.000128687
0.000119925
0.000116617
0.000116653
0.000119476
0.000124861
0.000132838
0.000143635
0.000157679
0.00017568
0.000198823
0.000229144
0.000267346
0.000315614
0.000376528
0.000453481
0.000550088
0.000699118
0.000745755
0.000692131
0.00056221
0.000441609
0.0111082
0.018242
0.00372207
)
;
    }
    sWall
    {
        Cmu             0.09;
        kappa           0.41;
        E               9.8;
        type            epsilonWallFunction;
        value           uniform 0.00266904;
    }
    nWall
    {
        Cmu             0.09;
        kappa           0.41;
        E               9.8;
        type            epsilonWallFunction;
        value           nonuniform List<scalar> 6(0.000224391 0.000258608 0.00039369 0.000593496 0.000615734 0.000441609);
    }
    sideWalls
    {
        type            empty;
    }
    glass1
    {
        Cmu             0.09;
        kappa           0.41;
        E               9.8;
        type            epsilonWallFunction;
        value           nonuniform List<scalar> 9(0.000500595 0.00128062 0.00234003 0.00378444 0.00575853 0.0084778 0.0115192 0.0121116 0.0111082);
    }
    glass2
    {
        Cmu             0.09;
        kappa           0.41;
        E               9.8;
        type            epsilonWallFunction;
        value           nonuniform List<scalar> 2(0.00145111 0.00113079);
    }
    sun
    {
        Cmu             0.09;
        kappa           0.41;
        E               9.8;
        type            epsilonWallFunction;
        value           nonuniform List<scalar> 
14
(
0.000500595
0.000654835
0.000689764
0.000795652
0.000903879
0.00101426
0.00113142
0.00125229
0.00134174
0.00138003
0.00135099
0.00124947
0.00108597
0.0008905
)
;
    }
    heatsource1
    {
        Cmu             0.09;
        kappa           0.41;
        E               9.8;
        type            epsilonWallFunction;
        value           nonuniform List<scalar> 3(9.41792e-05 0.000160046 0.000224391);
    }
    heatsource2
    {
        Cmu             0.09;
        kappa           0.41;
        E               9.8;
        type            epsilonWallFunction;
        value           nonuniform List<scalar> 4(0.000749854 0.000148608 0.000148608 0.000742076);
    }
    Table_master
    {
        Cmu             0.09;
        kappa           0.41;
        E               9.8;
        type            epsilonWallFunction;
        value           nonuniform List<scalar> 9(0.00019969 0.000138076 9.89983e-05 7.34917e-05 5.62983e-05 4.43456e-05 3.58222e-05 2.96429e-05 2.51869e-05);
    }
    Table_slave
    {
        Cmu             0.09;
        kappa           0.41;
        E               9.8;
        type            epsilonWallFunction;
        value           nonuniform List<scalar> 9(0.00028217 0.000214354 0.000173757 0.000146652 0.000125745 0.000108083 9.27237e-05 7.82005e-05 6.32739e-05);
    }
    inlet
    {
        type            turbulentMixingLengthDissipationRateInlet;
        mixingLength    0.01;
        phi             phi;
        k               k;
        value           uniform 0.000101881;
    }
    outlet
    {
        type            zeroGradient;
    }
}


// ************************************************************************* //
