/*--------------------------------*- C++ -*----------------------------------*\
  =========                 |
  \\      /  F ield         | OpenFOAM: The Open Source CFD Toolbox
   \\    /   O peration     | Website:  https://openfoam.org
    \\  /    A nd           | Version:  6
     \\/     M anipulation  |
\*---------------------------------------------------------------------------*/
FoamFile
{
    version     2.0;
    format      ascii;
    class       volScalarField;
    location    "1100";
    object      nut;
}
// * * * * * * * * * * * * * * * * * * * * * * * * * * * * * * * * * * * * * //

dimensions      [0 2 -1 0 0 0 0];

internalField   nonuniform List<scalar> 
459
(
0.00112255
0.00122769
0.00124914
0.00131004
0.00136693
0.00142046
0.00147317
0.00152386
0.00155932
0.00157401
0.00156289
0.00152272
0.00145318
0.00136016
0.00125848
0.000505139
0.000614685
0.000685866
0.000677233
0.000651816
0.000620087
0.000581894
0.000544463
0.000510503
0.000480282
0.000453449
0.000429544
0.000408326
0.000389195
0.000371511
0.000354428
0.000336752
0.000326799
0.000300545
0.00153527
0.00381922
0.00368139
0.00429752
0.00489983
0.00549835
0.00602124
0.00642007
0.00677528
0.00705962
0.00723456
0.00725545
0.00705282
0.00645278
0.0048223
0.00128442
0.000748855
0.000547653
0.00111699
0.00153318
0.00182994
0.00198153
0.00197063
0.00159996
0.00138714
0.00123366
0.00111505
0.00102012
0.000942364
0.000873194
0.000808952
0.000747223
0.000692965
0.000643742
0.000771772
0.000404267
0.00187694
0.00522938
0.00458951
0.00579309
0.00640267
0.00685689
0.00721009
0.00749242
0.0077886
0.00808857
0.0083564
0.00854241
0.0085892
0.00841391
0.00779139
0.00594492
0.00127996
0.00108636
0.00154744
0.00195993
0.00232349
0.002564
0.00248383
0.00082635
0.00073072
0.000654015
0.000592185
0.000541847
0.000500413
0.000466046
0.00043754
0.000414416
0.000447219
0.000515265
0.000872782
0.000474226
0.00220315
0.00668132
0.00463653
0.00615695
0.00672159
0.0069343
0.00707609
0.00723273
0.00747567
0.00778822
0.00812997
0.00843937
0.00865467
0.00871203
0.00853249
0.00784819
0.00567077
0.00152893
0.00192036
0.00247929
0.00299318
0.00337888
0.0035976
0.00334521
0.000927289
0.000846099
0.000788905
0.000745544
0.000708284
0.000673434
0.000639892
0.00060457
0.000563359
0.000528669
0.000542521
0.00102504
0.000525404
0.00253405
0.00852345
0.00515037
0.00595949
0.00668794
0.0067884
0.00675546
0.00685268
0.00707173
0.0073962
0.00778627
0.00815812
0.0084261
0.00852324
0.00842946
0.00810594
0.00737591
0.00604026
0.00556303
0.00537309
0.00527054
0.00518799
0.00508865
0.00486243
0.00409351
0.00373583
0.0035297
0.00336782
0.00319463
0.00294467
0.00260437
0.00219488
0.00174499
0.00129566
0.000956259
0.000999864
0.000687094
0.000643221
0.000767581
0.000859101
0.00288274
0.0105121
0.00708419
0.00604502
0.00655
0.00680847
0.00668178
0.00675612
0.00692567
0.00722232
0.00762696
0.00804356
0.00834547
0.00843645
0.00829828
0.00799097
0.0076046
0.00719858
0.00692848
0.00669485
0.00644407
0.00618765
0.00593229
0.00565296
0.00529015
0.00498478
0.00472429
0.00448099
0.00423804
0.00397685
0.00363515
0.00319699
0.00266437
0.00207358
0.00155087
0.00114515
0.000909836
0.000808648
0.00117475
0.000900719
0.0031929
0.0118676
0.00978997
0.00780597
0.00744744
0.00728698
0.00702852
0.00689645
0.00697418
0.0072754
0.00773205
0.00820226
0.00852145
0.00857512
0.00835453
0.00797636
0.00763713
0.00745096
0.00733029
0.00711626
0.00678649
0.0063951
0.00598304
0.00557627
0.00519679
0.00487813
0.00460431
0.00435822
0.00413539
0.00393975
0.00376833
0.00347977
0.00305232
0.00253008
0.00203593
0.00158552
0.00129953
0.00124816
0.00131762
0.00103615
0.00324672
0.0104001
0.00936719
0.0087478
0.00811406
0.00743832
0.00696766
0.00683702
0.00705592
0.00754524
0.00815271
0.00868161
0.00895132
0.00887324
0.00849135
0.0079992
0.00765478
0.00751187
0.00730398
0.00688742
0.00634263
0.00576234
0.00521965
0.00476419
0.00440968
0.00413763
0.00391958
0.0037423
0.00360635
0.00351907
0.00348839
0.00347692
0.00321574
0.00286335
0.0025636
0.00244129
0.00262699
0.0032168
0.00406212
0.00160057
0.00315446
0.00372164
0.00411426
0.00419949
0.00438313
0.00479791
0.00547601
0.0063833
0.00740975
0.00839429
0.00916275
0.0095602
0.0095037
0.00905481
0.00840646
0.00789635
0.00748851
0.0070788
0.00653043
0.00585186
0.00515193
0.00453465
0.00405121
0.00369798
0.00344105
0.00324371
0.00308098
0.00294019
0.0028142
0.00269707
0.0025837
0.00247627
0.00239048
0.00233535
0.00233144
0.00236595
0.00236656
0.00226825
0.00210804
0.00147289
0.00147965
0.00365273
0.00649454
0.00840485
0.00970498
0.0105392
0.0109372
0.0109586
0.0106781
0.0101604
0.00942167
0.00854073
0.00774158
0.00711591
0.00649907
0.0058043
0.00507212
0.00438058
0.00380303
0.00337724
0.00307879
0.00286711
0.00270942
0.00258527
0.00248408
0.00240159
0.00233738
0.00229401
0.00227718
0.00228666
0.00230995
0.00234418
0.00237853
0.00238166
0.0023059
0.00213439
0.00187874
0.00118809
0.00219097
0.00655699
0.00920107
0.00991478
0.0101911
0.0101269
0.00973328
0.00911764
0.00838773
0.00763682
0.00692066
0.00626203
0.00567203
0.00508701
0.00447756
0.00390433
0.00341649
0.00302741
0.0027247
0.00250506
0.00234738
0.00223443
0.0021566
0.00210934
0.00208992
0.00209511
0.00211964
0.00215559
0.00221515
0.00229279
0.00238437
0.00248226
0.00257007
0.00263363
0.00262442
0.00262894
0.0023699
0.00120275
0.00196108
0.00207954
0.00216499
0.00233454
0.00225015
0.00216587
0.00210086
0.00200636
0.00187662
0.00171904
0.00154111
0.00135575
0.00118215
0.00103726
0.000925733
0.000843387
0.000783883
0.000741902
0.000713749
0.000697169
0.0006907
0.000690773
0.000696302
0.000706612
0.000721351
0.000740389
0.000763776
0.0007918
0.000825145
0.000865123
0.000910751
0.000962559
0.00102088
0.00108616
0.00115838
0.00125475
0.00128205
0.00125056
0.00116683
0.0010766
)
;

boundaryField
{
    floor
    {
        type            nutkWallFunction;
        Cmu             0.09;
        kappa           0.41;
        E               9.8;
        value           nonuniform List<scalar> 
29
(
0.000150713
6.0374e-05
7.41823e-05
8.29917e-05
8.19294e-05
7.87923e-05
7.48552e-05
7.00834e-05
6.53695e-05
6.10582e-05
5.71917e-05
5.37331e-05
5.06303e-05
4.78578e-05
4.53424e-05
4.30031e-05
4.07297e-05
3.83624e-05
3.70224e-05
3.34611e-05
3.3461e-05
4.73253e-05
5.64131e-05
6.2954e-05
0.000150714
6.03739e-05
6.57724e-05
0.000130828
0.000181365
)
;
    }
    ceiling
    {
        type            nutkWallFunction;
        Cmu             0.09;
        kappa           0.41;
        E               9.8;
        value           nonuniform List<scalar> 
43
(
0.000228962
0.000241832
0.000251069
0.000269426
0.000260423
0.000251362
0.000244342
0.000234087
0.000219913
0.000202552
0.000182736
0.00016182
0.00014194
0.000125095
0.000111945
0.000102118
9.49482e-05
8.9851e-05
8.64135e-05
8.43816e-05
8.3587e-05
8.35958e-05
8.42746e-05
8.55388e-05
8.73424e-05
8.96656e-05
9.25099e-05
9.59047e-05
9.99257e-05
0.000104722
0.000110164
0.000116306
0.000123174
0.000130809
0.000139195
0.000150294
0.000153421
0.000149814
0.000140172
0.000129695
0.000356167
0.00041459
0.000253671
)
;
    }
    sWall
    {
        type            nutkWallFunction;
        Cmu             0.09;
        kappa           0.41;
        E               9.8;
        value           uniform 0.000229027;
    }
    nWall
    {
        type            nutkWallFunction;
        Cmu             0.09;
        kappa           0.41;
        E               9.8;
        value           nonuniform List<scalar> 6(0.000104003 0.000108973 0.00012497 0.000142638 0.000144328 0.000129703);
    }
    sideWalls
    {
        type            empty;
    }
    glass1
    {
        type            nutkWallFunction;
        Cmu             0.09;
        kappa           0.41;
        E               9.8;
        value           nonuniform List<scalar> 9(0.000135164 0.00018233 0.000220294 0.000255838 0.000291323 0.000328191 0.000360597 0.000366198 0.000356629);
    }
    glass2
    {
        type            nutkWallFunction;
        Cmu             0.09;
        kappa           0.41;
        E               9.8;
        value           nonuniform List<scalar> 2(0.000189484 0.00017516);
    }
    sun
    {
        type            nutkWallFunction;
        Cmu             0.09;
        kappa           0.41;
        E               9.8;
        value           nonuniform List<scalar> 
14
(
0.000135042
0.000147182
0.000149645
0.000156612
0.000163087
0.000169152
0.0001751
0.000180799
0.000184771
0.000186415
0.000185171
0.000180669
0.000172845
0.000162316
)
;
    }
    heatsource1
    {
        type            nutkWallFunction;
        Cmu             0.09;
        kappa           0.41;
        E               9.8;
        value           nonuniform List<scalar> 3(7.77303e-05 9.29716e-05 0.000104);
    }
    heatsource2
    {
        type            nutkWallFunction;
        Cmu             0.09;
        kappa           0.41;
        E               9.8;
        value           nonuniform List<scalar> 4(0.000153677 9.06956e-05 9.06956e-05 0.000153167);
    }
    Table_master
    {
        type            nutkWallFunction;
        Cmu             0.09;
        kappa           0.41;
        E               9.8;
        value           nonuniform List<scalar> 9(0.000100069 8.84868e-05 7.90667e-05 7.13769e-05 6.50442e-05 5.97775e-05 5.53682e-05 5.16802e-05 4.86661e-05);
    }
    Table_slave
    {
        type            nutkWallFunction;
        Cmu             0.09;
        kappa           0.41;
        E               9.8;
        value           nonuniform List<scalar> 9(0.000112126 0.000102441 9.55539e-05 9.02935e-05 8.57443e-05 8.14633e-05 7.73179e-05 7.29241e-05 6.77581e-05);
    }
    inlet
    {
        type            calculated;
        value           uniform 0.000100623;
    }
    outlet
    {
        type            calculated;
        value           nonuniform List<scalar> 2(0.00196108 0.00207954);
    }
}


// ************************************************************************* //
