/*--------------------------------*- C++ -*----------------------------------*\
  =========                 |
  \\      /  F ield         | OpenFOAM: The Open Source CFD Toolbox
   \\    /   O peration     | Website:  https://openfoam.org
    \\  /    A nd           | Version:  6
     \\/     M anipulation  |
\*---------------------------------------------------------------------------*/
FoamFile
{
    version     2.0;
    format      ascii;
    class       surfaceScalarField;
    location    "800";
    object      phi;
}
// * * * * * * * * * * * * * * * * * * * * * * * * * * * * * * * * * * * * * //

dimensions      [1 0 -1 0 0 0 0];

internalField   nonuniform List<scalar> 
852
(
-0.00313275
0.00319316
-0.00430888
0.00117612
-0.00514506
0.000836173
-0.00572824
0.000583178
-0.00601981
0.000291564
-0.00599018
-2.96355e-05
-0.00561675
-0.000373433
-0.00491919
-0.000697568
-0.00397418
-0.000945015
-0.00289469
-0.00107949
-0.00180238
-0.00109231
-0.000819438
-0.000982951
-7.5026e-05
-0.000744419
0.000216584
-0.000291623
0.000219218
-0.0009792
0.000982892
-0.000758946
-0.000220282
-9.5625e-05
-0.000663348
0.000540482
-0.000636133
0.00102098
-0.000480527
0.00135525
-0.000334297
0.00154611
-0.000190884
0.0016377
-9.16246e-05
0.00168949
-5.18154e-05
0.00172356
-3.41033e-05
0.00174555
-2.20159e-05
0.00175774
-1.22246e-05
0.00175861
-9.02732e-07
0.00173896
1.9615e-05
0.0016736
6.53207e-05
0.00151947
0.000154095
0.0012557
0.00026373
0.00089108
0.00036458
0.000895865
-0.00223818
0.00559414
-0.00335464
0.00229257
-0.00420811
0.00168963
-0.00479019
0.00116526
-0.00508652
0.00058789
-0.00506976
-4.64026e-05
-0.00472485
-0.000718347
-0.00409036
-0.00133206
-0.00325824
-0.00177713
-0.00234102
-0.00199672
-0.00144382
-0.00198951
-0.000659136
-0.00176764
-6.20923e-05
-0.00134147
0.000360697
-0.000714421
0.00071236
-0.000132459
0.000491244
0.00022105
0.000491175
8.56797e-05
0.000908335
0.000538011
-0.000672639
0.000917252
-0.00104261
0.00122617
-0.000945077
0.00148131
-0.000735683
0.00165849
-0.000511509
0.00169585
-0.000228262
0.00170382
-9.96253e-05
0.00171303
-6.10483e-05
0.00172072
-4.18229e-05
0.00172578
-2.71112e-05
0.00172876
-1.52408e-05
0.00172899
-1.16031e-06
0.00172238
2.61881e-05
0.00167759
0.000110076
0.00148628
0.000345365
0.00115674
0.000593237
0.000737829
0.00078345
0.00164632
-0.0015622
0.0074057
-0.00250823
0.00323859
-0.0032643
0.00244569
-0.0037671
0.00166806
-0.00401966
0.000840441
-0.00397653
-8.95392e-05
-0.00361432
-0.00108056
-0.00300534
-0.00194104
-0.00226378
-0.0025187
-0.00149528
-0.00276521
-0.000775575
-0.00270921
-0.000159816
-0.0023834
0.000331319
-0.00183261
0.00073942
-0.00112253
0.00101515
-0.000408196
0.000943929
0.000292259
0.00143509
0.00164143
-0.00071985
0.00190148
-0.00093271
0.00186384
-0.001005
0.00186527
-0.000946529
0.00191223
-0.000782665
0.00200777
-0.000607071
0.00177964
0.00168015
0.00161923
0.00157753
0.00155054
0.00153542
0.00153439
0.00156069
0.00167089
0.00136968
0.000646541
0.00101326
0.00094962
0.000584349
0.00121232
0.00224999
-0.0010792
0.00880838
-0.00180899
0.00396838
-0.00230767
0.00294436
-0.00262956
0.00198994
-0.00275259
0.000963459
-0.00259522
-0.000246915
-0.00216381
-0.00151197
-0.00158168
-0.00252315
-0.000965368
-0.003135
-0.000387997
-0.00334258
0.000115622
-0.00321282
0.000530385
-0.00279817
0.000880953
-0.00218318
0.00120889
-0.00145047
0.00151307
-0.000712384
0.00186501
-5.96969e-05
0.00290657
0.000393525
0.00294922
-3.13013e-05
0.00265363
-0.000424265
0.00246049
-0.000739586
0.0022628
-0.000807322
0.00208798
-0.000771721
0.00196312
-0.000657828
0.00182863
-0.000472604
0.00202234
-0.00019389
0.00211393
-9.17677e-05
0.00216805
-5.42966e-05
0.00219328
-2.54123e-05
0.00217886
1.42466e-05
0.00210833
7.03494e-05
0.00195939
0.000148753
0.00169883
0.000260381
0.00126625
0.000432386
0.00110356
0.000809204
0.00078511
0.00126803
0.000331694
0.00166569
0.00260704
-0.000743485
0.00993855
-0.00127614
0.00450102
-0.00137088
0.0030391
-0.00139869
0.00201774
-0.00124822
0.000812986
-0.000847227
-0.000647917
-0.000327575
-0.00203162
0.000168778
-0.0030195
0.000577864
-0.00354408
0.000886923
-0.00365163
0.00110643
-0.00343233
0.00126971
-0.00296144
0.00140947
-0.00232294
0.00156115
-0.00160215
0.00175363
-0.000904868
0.00202966
-0.000335744
0.00241561
7.57377e-06
0.0024654
-8.11042e-05
0.00236834
-0.00032721
0.00214934
-0.000520598
0.00192756
-0.000585562
0.00172443
-0.000568603
0.00155926
-0.000492686
0.00145167
-0.000365033
0.00146938
-0.000211624
0.00149969
-0.000122101
0.00152772
-8.2353e-05
0.00155322
-5.09406e-05
0.00156639
1.04603e-06
0.00155072
8.59898e-05
0.00149018
0.00020926
0.00137142
0.000379103
0.00119554
0.000608242
0.00104243
0.000962276
0.000879622
0.0014308
0.00050902
0.00203626
0.000461874
0.00265415
-0.00109431
0.00155593
-0.00156399
0.000469435
-0.00150995
-0.000631119
0.0110098
-0.000966299
0.00483619
-0.000484391
0.00255718
-1.02825e-05
0.00154362
0.000612044
0.000190648
0.00130599
-0.00134187
0.00181804
-0.00254367
0.00211259
-0.00331404
0.00222594
-0.0036574
0.00220507
-0.00363074
0.0020908
-0.00331805
0.00193504
-0.00280567
0.00178529
-0.0021732
0.00167795
-0.00149482
0.00163936
-0.000866293
0.00168045
-0.000376847
0.00178172
-9.37031e-05
0.00177656
-7.59525e-05
0.00164889
-0.000199555
0.00144658
-0.000318301
0.00123858
-0.000377578
0.00105146
-0.000381504
0.000901418
-0.000342671
0.000807639
-0.00027128
0.000786171
-0.000190183
0.000806453
-0.000142413
0.000847944
-0.000123873
0.000903482
-0.00010651
0.000967435
-6.29377e-05
0.00102484
2.85473e-05
0.00106147
0.0001726
0.00107772
0.000362826
0.00107786
0.000608067
0.00110658
0.000933515
0.0012176
0.00131975
0.00142011
0.0018337
0.00194827
0.00212595
0.00224921
0.00125496
0.00186109
0.00085751
0.000415909
-0.00062674
0.0121256
-0.000414629
0.00462407
0.000945854
0.00119669
0.00211444
0.00037502
0.00313797
-0.000832888
0.00383048
-0.00203439
0.00414677
-0.00285994
0.00412401
-0.00329126
0.0038437
-0.00337707
0.00339508
-0.00318211
0.0028614
-0.00278436
0.00232023
-0.00226451
0.0018324
-0.00168538
0.00143255
-0.00109498
0.00114909
-0.000582854
0.000987131
-0.000214902
0.000914536
-2.11245e-05
0.000839977
-1.40997e-06
0.000715828
-7.54258e-05
0.00055618
-0.000158673
0.00039062
-0.000212042
0.000240742
-0.000231652
0.000122664
-0.000224619
5.18705e-05
-0.000200516
3.6691e-05
-0.000175034
6.25709e-05
-0.000168325
0.000114467
-0.000175802
0.000187814
-0.000179891
0.00028524
-0.000160398
0.000406953
-9.31991e-05
0.000538277
4.12414e-05
0.000675379
0.000225689
0.000830962
0.000452448
0.00103751
0.000726927
0.00134685
0.00101037
0.00183355
0.00134698
0.00259772
0.00136173
0.00321219
0.000640449
0.00327726
0.000792405
0.00376208
0.00294191
0.00973157
0.00380777
0.00375821
0.00462312
0.000381334
0.00586063
-0.000862505
0.00667968
-0.00165193
0.00689225
-0.00224694
0.00661481
-0.00258248
0.00596961
-0.00264604
0.0050836
-0.00249104
0.00407698
-0.00217548
0.00305787
-0.00176525
0.00211651
-0.00132316
0.00131511
-0.000883996
0.000676582
-0.000456478
0.000237513
-0.000143809
-1.28736e-05
3.54606e-05
-0.000129789
9.5768e-05
-0.000200701
6.94787e-05
-0.000285414
9.26263e-06
-0.000393293
-5.08211e-05
-0.000508636
-9.67267e-05
-0.000614297
-0.000126022
-0.000697007
-0.000141941
-0.000747238
-0.000150318
-0.000762298
-0.000160008
-0.000752359
-0.000178299
-0.000727037
-0.000201159
-0.000688035
-0.000218928
-0.000627705
-0.000220764
-0.000527222
-0.000193718
-0.000369554
-0.000116464
-0.000174686
3.07846e-05
5.48826e-05
0.000222842
0.000341253
0.000440519
0.000684201
0.00066739
0.00113764
0.000893503
0.00162667
0.00087266
0.00176322
0.000503866
0.000938707
0.00161688
0.00499524
0.01034
0.0140957
0.0130844
0.00139256
0.0123495
-0.000127539
0.011322
-0.000624375
0.00998638
-0.000911313
0.00840299
-0.000999047
0.00671022
-0.000953244
0.00503188
-0.000812684
0.00345735
-0.000600944
0.00206202
-0.000369931
0.000888371
-0.000149538
-3.56167e-05
3.99565e-05
-0.00064826
0.000156134
-0.000964771
0.000172672
-0.00109827
0.000168938
-0.00115004
0.000147507
-0.00118847
0.000107882
-0.00123947
6.02328e-05
-0.00130657
1.62488e-05
-0.00138395
-1.93857e-05
-0.00146133
-4.86691e-05
-0.00153012
-7.31903e-05
-0.00158691
-9.35591e-05
-0.00163401
-0.000112949
-0.00168137
-0.000130972
-0.00174023
-0.000142344
-0.00182111
-0.000138081
-0.00193581
-0.000106103
-0.00209892
-3.06496e-05
-0.00231218
9.67568e-05
-0.00257122
0.000289795
-0.00292097
0.000572548
-0.00344669
0.000966206
-0.00424382
0.00146448
-0.00536767
0.00201731
-0.00692652
0.00243147
-0.00877962
0.00235693
-0.00814734
0.000984553
-0.00282629
0.00447703
0.0031906
0.00333869
0.00101082
0.0033884
-0.000674088
0.00306613
-0.000589068
0.00236299
-0.000295942
0.00145312
-4.34178e-05
0.000472291
0.000168105
-0.00043075
0.000302046
-0.00113911
0.000338391
-0.00161733
0.000328647
-0.00188446
0.000307046
-0.00199909
0.000270734
-0.00204695
0.0002205
-0.00205531
0.000177265
-0.00204997
0.000142131
-0.00205274
0.000110621
-0.00207453
8.19883e-05
-0.00211554
5.72207e-05
-0.00217124
3.62779e-05
-0.00223739
1.74472e-05
-0.00230992
-6.98282e-07
-0.00238557
-1.79417e-05
-0.00246437
-3.41944e-05
-0.00255085
-4.45242e-05
-0.00264793
-4.5312e-05
-0.00275465
-3.1396e-05
-0.00286368
2.8854e-06
-0.00296524
7.0871e-05
-0.00305628
0.000187765
-0.00314115
0.000374625
-0.00322609
0.000657443
-0.00332004
0.00106012
-0.00342406
0.00156846
-0.00347605
0.00206926
-0.00338106
0.00233645
-0.00293609
0.00191193
-0.00160372
-0.000347864
-0.00434586
-0.000793326
0.00406755
-0.000603511
0.000820963
-0.00146088
0.000183233
-0.00215149
0.000101493
-0.00262947
0.000181989
-0.00293869
0.00026575
-0.00309921
0.000328573
-0.00316102
0.000363813
-0.00316967
0.000346994
-0.00313951
0.000298454
-0.00307671
0.000244206
-0.00299887
0.000192857
-0.0029274
0.000148993
-0.00286681
0.00011664
-0.00281806
9.33427e-05
-0.00278271
7.52364e-05
-0.00276099
6.02341e-05
-0.0027512
4.73944e-05
-0.00275064
3.56719e-05
-0.00275717
2.39373e-05
-0.00276985
1.19405e-05
-0.00278751
-3.20372e-07
-0.00281143
-1.0316e-05
-0.00284072
-1.5273e-05
-0.00287302
-1.30444e-05
-0.00290385
-6.08697e-07
-0.0029253
2.4294e-05
-0.00292184
6.73737e-05
-0.00287572
0.000141598
-0.00275934
0.00025821
-0.00253749
0.000435549
-0.0021803
0.000702895
-0.00168852
0.00107664
-0.00104177
0.00142248
-1.78259e-05
0.00131247
0.00128503
0.000609028
0.00159394
-0.000656808
-0.0026593
-0.0079464
-0.0112135
-0.0070942
-0.00624823
-0.00604824
-0.00593333
-0.00573989
-0.00546403
-0.00512621
-0.00475367
-0.00439818
-0.00409129
-0.00383864
-0.00363731
-0.00347979
-0.00335456
-0.0032525
-0.00316839
-0.00309909
-0.00304245
-0.00299739
-0.00296395
-0.00294245
-0.00293322
-0.00293401
-0.00293983
-0.00294353
-0.00293494
-0.00290161
-0.00282541
-0.00267523
-0.00240871
-0.00196516
-0.00125461
-0.0001707
0.00125844
0.00257725
0.00319254
0.00254218
)
;

boundaryField
{
    floor
    {
        type            calculated;
        value           nonuniform List<scalar> 
29
(
0
0
0
0
0
0
0
0
0
0
0
0
0
0
0
0
0
0
0
0
-4.82498e-06
-1.2666e-05
-1.93633e-05
-2.54007e-05
-2.64636e-06
-3.72264e-06
-1.11536e-05
-1.32709e-05
-1.13647e-05
)
;
    }
    ceiling
    {
        type            calculated;
        value           nonuniform List<scalar> 
43
(
-5.55369e-05
-5.34815e-05
-5.18131e-05
-2.50705e-05
-1.68109e-05
-1.3471e-05
-1.14962e-05
-1.01647e-05
-9.29253e-06
-8.76905e-06
-8.5324e-06
-8.47338e-06
-8.48289e-06
-8.51306e-06
-8.56027e-06
-8.6365e-06
-8.75368e-06
-8.91355e-06
-9.09999e-06
-9.28345e-06
-9.43534e-06
-9.53961e-06
-9.59311e-06
-9.59937e-06
-9.56246e-06
-9.49003e-06
-9.38402e-06
-9.24483e-06
-9.07055e-06
-8.86343e-06
-8.62316e-06
-8.34961e-06
-8.04134e-06
-7.69546e-06
-7.3064e-06
-6.7017e-06
-6.38621e-06
-6.30489e-06
-6.48665e-06
-6.03144e-06
4.7738e-06
2.54156e-06
-8.36283e-05
)
;
    }
    sWall
    {
        type            calculated;
        value           uniform -0.000272726;
    }
    nWall
    {
        type            calculated;
        value           nonuniform List<scalar> 6(-5.42911e-05 -6.48097e-05 -6.89601e-05 -8.41829e-05 -9.26684e-05 -0.000111121);
    }
    sideWalls
    {
        type            empty;
        value           nonuniform 0();
    }
    glass1
    {
        type            calculated;
        value           nonuniform List<scalar> 9(-6.04184e-05 -0.000162803 -0.000249368 -0.000323483 -0.0003867 -0.000440143 -0.000489078 -0.000547864 -0.000613226);
    }
    glass2
    {
        type            calculated;
        value           nonuniform List<scalar> 2(-0.000294485 -0.000325851);
    }
    sun
    {
        type            calculated;
        value           uniform 0;
    }
    heatsource1
    {
        type            calculated;
        value           nonuniform List<scalar> 3(2.05058e-07 2.04952e-07 2.04978e-07);
    }
    heatsource2
    {
        type            calculated;
        value           nonuniform List<scalar> 4(5.1468e-08 5.15574e-08 0 0);
    }
    Table_master
    {
        type            calculated;
        value           nonuniform List<scalar> 9(-1.53855e-07 -1.53989e-07 -1.54032e-07 -1.54058e-07 -1.54075e-07 -1.54086e-07 -1.5409e-07 -1.5408e-07 -1.54039e-07);
    }
    Table_slave
    {
        type            calculated;
        value           nonuniform List<scalar> 9(1.53683e-07 1.53713e-07 1.5369e-07 1.53676e-07 1.53671e-07 1.53674e-07 1.53699e-07 1.53751e-07 1.53845e-07);
    }
    inlet
    {
        type            calculated;
        value           uniform -0.00627504;
    }
    outlet
    {
        type            calculated;
        value           nonuniform List<scalar> 2(0.00827461 0.00332052);
    }
}


// ************************************************************************* //
