// -*- C++ -*-
// File generated by PyFoam - sorry for the ugliness

FoamFile
{
 version 2.0;
 format ascii;
 class volScalarField;
 location "800";
 object T;
}

dimensions [ 0 0 0 1 0 0 0 ];

internalField nonuniform List<scalar> 459
(
  302.379
  302.097
  302.082
  302.077
  302.072
  302.067
  302.062
  302.053
  302.043
  302.034
  302.027
  302.027
  302.034
  302.058
  302.098
  302.288
  302.256
  302.242
  302.248
  302.259
  302.27
  302.28
  302.29
  302.3
  302.31
  302.32
  302.33
  302.341
  302.351
  302.362
  302.373
  302.386
  302.402
  302.438
  302.562
  302.137
  302.108
  302.107
  302.107
  302.105
  302.098
  302.082
  302.058
  302.034
  302.017
  302.011
  302.017
  302.032
  302.05
  302.052
  302.057
  302.297
  302.221
  302.212
  302.222
  302.237
  302.252
  302.261
  302.268
  302.275
  302.282
  302.289
  302.297
  302.304
  302.312
  302.322
  302.333
  302.349
  302.371
  302.423
  302.756
  302.191
  302.145
  302.153
  302.164
  302.169
  302.163
  302.135
  302.09
  302.045
  302.013
  302.001
  302.007
  302.022
  302.036
  302.044
  302.05
  302.216
  302.191
  302.195
  302.216
  302.243
  302.266
  302.269
  302.273
  302.278
  302.284
  302.289
  302.296
  302.302
  302.309
  302.317
  302.328
  302.342
  302.364
  302.419
  302.955
  302.26
  302.188
  302.206
  302.235
  302.258
  302.253
  302.204
  302.128
  302.056
  302.008
  301.991
  302
  302.019
  302.038
  302.05
  302.057
  302.072
  302.1
  302.14
  302.187
  302.235
  302.278
  302.314
  302.342
  302.366
  302.386
  302.404
  302.419
  302.433
  302.445
  302.456
  302.463
  302.423
  302.391
  302.382
  302.424
  303.151
  302.348
  302.242
  302.26
  302.31
  302.357
  302.346
  302.265
  302.152
  302.058
  301.999
  301.98
  301.994
  302.024
  302.055
  302.078
  302.095
  302.122
  302.16
  302.207
  302.259
  302.311
  302.358
  302.397
  302.433
  302.461
  302.484
  302.502
  302.515
  302.522
  302.525
  302.523
  302.514
  302.483
  302.438
  302.407
  302.427
  302.567
  302.627
  302.628
  303.33
  302.465
  302.332
  302.335
  302.397
  302.449
  302.4
  302.284
  302.15
  302.039
  301.975
  301.963
  301.991
  302.04
  302.091
  302.132
  302.168
  302.207
  302.253
  302.306
  302.359
  302.411
  302.456
  302.493
  302.525
  302.55
  302.569
  302.584
  302.592
  302.592
  302.587
  302.576
  302.559
  302.528
  302.483
  302.441
  302.436
  302.497
  302.527
  302.575
  303.501
  302.649
  302.521
  302.517
  302.566
  302.532
  302.408
  302.241
  302.082
  301.972
  301.926
  301.94
  301.998
  302.08
  302.158
  302.223
  302.276
  302.324
  302.374
  302.425
  302.474
  302.519
  302.558
  302.589
  302.613
  302.632
  302.645
  302.653
  302.655
  302.65
  302.638
  302.621
  302.599
  302.568
  302.527
  302.485
  302.466
  302.484
  302.505
  302.544
  303.74
  303.111
  302.971
  302.908
  302.769
  302.544
  302.288
  302.062
  301.907
  301.841
  301.856
  301.929
  302.041
  302.168
  302.275
  302.356
  302.417
  302.463
  302.506
  302.549
  302.588
  302.623
  302.651
  302.672
  302.688
  302.698
  302.704
  302.705
  302.701
  302.693
  302.68
  302.661
  302.64
  302.612
  302.58
  302.548
  302.538
  302.562
  302.592
  302.744
  304.088
  303.787
  303.503
  303.098
  302.526
  302.042
  301.725
  301.576
  301.572
  301.674
  301.829
  301.997
  302.173
  302.349
  302.448
  302.51
  302.553
  302.591
  302.627
  302.658
  302.686
  302.708
  302.725
  302.737
  302.744
  302.746
  302.745
  302.741
  302.734
  302.727
  302.721
  302.716
  302.715
  302.72
  302.735
  302.764
  302.806
  302.849
  302.875
  302.94
  293.102
  294.609
  296.979
  298.683
  299.863
  300.707
  301.34
  301.828
  302.14
  302.322
  302.447
  302.537
  302.596
  302.638
  302.671
  302.699
  302.725
  302.746
  302.762
  302.774
  302.781
  302.784
  302.784
  302.783
  302.78
  302.776
  302.773
  302.77
  302.768
  302.767
  302.77
  302.778
  302.794
  302.819
  302.851
  302.885
  302.916
  302.948
  294.5
  297.144
  299.385
  300.542
  301.252
  301.723
  302.044
  302.282
  302.447
  302.554
  302.628
  302.679
  302.715
  302.743
  302.765
  302.783
  302.798
  302.809
  302.815
  302.819
  302.819
  302.818
  302.816
  302.814
  302.811
  302.808
  302.805
  302.802
  302.8
  302.8
  302.801
  302.806
  302.816
  302.833
  302.855
  302.884
  302.89
  302.928
  298.559
  298.485
  298.478
  300.811
  301.695
  302.053
  302.266
  302.423
  302.543
  302.634
  302.701
  302.749
  302.783
  302.808
  302.826
  302.84
  302.85
  302.857
  302.862
  302.864
  302.864
  302.863
  302.86
  302.857
  302.853
  302.849
  302.845
  302.841
  302.837
  302.833
  302.83
  302.828
  302.826
  302.826
  302.829
  302.841
  302.853
  302.864
  302.872
  302.916
)
;

boundaryField
{
  floor
  {
    type wallHeatTransfer;
    Tinf uniform 305.2;
    alphaWall uniform 0.24;
    value nonuniform List<scalar> 29
(
  302.449
  302.783
  302.702
  302.647
  302.64
  302.653
  302.672
  302.7
  302.731
  302.761
  302.791
  302.82
  302.849
  302.876
  302.903
  302.929
  302.957
  302.987
  303.016
  303.081
  303.081
  302.986
  302.936
  302.909
  302.449
  302.783
  302.791
  302.569
  302.328
)
;
  }
  ceiling
  {
    type wallHeatTransfer;
    Tinf uniform 303.2;
    alphaWall uniform 0.24;
    value nonuniform List<scalar> 43
(
  298.861
  298.777
  298.761
  300.947
  301.785
  302.125
  302.327
  302.477
  302.591
  302.68
  302.746
  302.793
  302.827
  302.852
  302.871
  302.885
  302.896
  302.904
  302.909
  302.912
  302.913
  302.912
  302.91
  302.907
  302.903
  302.899
  302.894
  302.889
  302.884
  302.879
  302.875
  302.871
  302.868
  302.866
  302.867
  302.875
  302.885
  302.896
  302.904
  302.946
  304.048
  303.764
  295.007
)
;
  }
  sWall
  {
    type wallHeatTransfer;
    Tinf uniform 315.2;
    alphaWall uniform 0.36;
    value uniform 300.134;
  }
  nWall
  {
    type wallHeatTransfer;
    Tinf uniform 307.2;
    alphaWall uniform 0.36;
    value nonuniform List<scalar> 6
(
  303.435
  303.364
  303.256
  303.546
  303.523
  303.565
)
;
  }
  sideWalls
  {
    type empty;
  }
  glass1
  {
    type wallHeatTransfer;
    Tinf uniform 315.2;
    alphaWall uniform 4.3;
    value nonuniform List<scalar> 9
(
  310.895
  310.224
  309.809
  309.499
  309.243
  309.01
  308.85
  308.943
  309.202
)
;
  }
  glass2
  {
    type wallHeatTransfer;
    Tinf uniform 307.2;
    alphaWall uniform 4.3;
    value nonuniform List<scalar> 2
(
  305.428
  305.58
)
;
  }
  sun
  {
    type wallHeatTransfer;
    Tinf uniform 305.2;
    alphaWall uniform 0.24;
    value nonuniform List<scalar> 14
(
  302.654
  302.378
  302.358
  302.343
  302.33
  302.317
  302.303
  302.29
  302.278
  302.269
  302.268
  302.276
  302.298
  302.36
)
;
  }
  heatsource1
  {
    type fixedGradient;
    gradient uniform 0;
  }
  heatsource2
  {
    type fixedGradient;
    gradient uniform 0;
  }
  Table_master
  {
    type zeroGradient;
  }
  Table_slave
  {
    type zeroGradient;
  }
  inlet
  {
    type fixedValue;
    value uniform 290.15;
  }
  outlet
  {
    type zeroGradient;
  }
} 	// ************************************************************************* //

