/*--------------------------------*- C++ -*----------------------------------*\
  =========                 |
  \\      /  F ield         | OpenFOAM: The Open Source CFD Toolbox
   \\    /   O peration     | Website:  https://openfoam.org
    \\  /    A nd           | Version:  6
     \\/     M anipulation  |
\*---------------------------------------------------------------------------*/
FoamFile
{
    version     2.0;
    format      ascii;
    class       volScalarField;
    location    "130";
    object      alphat;
}
// * * * * * * * * * * * * * * * * * * * * * * * * * * * * * * * * * * * * * //

dimensions      [1 -1 -1 0 0 0 0];

internalField   nonuniform List<scalar> 
459
(
0.00157113
0.00174333
0.00189303
0.00180305
0.00149018
0.00128038
0.00107507
0.000963292
0.000869818
0.000795354
0.000742743
0.000706257
0.00067912
0.000658816
0.000643643
0.000507028
0.000598312
0.000610775
0.000569031
0.000514345
0.00044466
0.000374154
0.000282479
0.000222444
0.000219027
0.000222438
0.00022037
0.000219775
0.000229707
0.000249514
0.000298258
0.000393625
0.000446118
0.000432399
0.00165573
0.0028501
0.00438488
0.00585335
0.00641049
0.00592724
0.00483851
0.00353886
0.00298122
0.00309707
0.00316425
0.00292025
0.00256889
0.00212803
0.00152142
0.000689429
0.000516645
0.000699945
0.00128742
0.0014468
0.00152203
0.001363
0.00109398
0.000708691
0.000471935
0.000438532
0.00048821
0.000451622
0.000376641
0.00032243
0.000333828
0.000447027
0.000765981
0.00124318
0.00149139
0.000602372
0.00185194
0.00276367
0.00328962
0.00386402
0.00468628
0.00534355
0.0055845
0.00542714
0.00433195
0.00375043
0.00401458
0.00378887
0.00324584
0.00262524
0.00194961
0.0013184
0.000771589
0.000954581
0.0024969
0.00223873
0.00189949
0.00155885
0.00126569
0.000426878
0.000341811
0.000303551
0.000278728
0.00025752
0.000237391
0.00022288
0.000286947
0.000526523
0.00132233
0.00182213
0.00167297
0.000655161
0.00373035
0.00426343
0.0042176
0.00414162
0.00428792
0.00473018
0.00525666
0.00564872
0.00540188
0.00462925
0.00482069
0.00483773
0.00425312
0.00349037
0.00264584
0.00185464
0.00129605
0.00107002
0.00249449
0.00238889
0.00221472
0.00192552
0.00159965
0.00123851
0.000931841
0.000967824
0.00101474
0.00106766
0.00112317
0.00118188
0.00122192
0.00122538
0.00119078
0.00140525
0.00178435
0.00235855
0.000999942
0.00406224
0.00519343
0.0048803
0.00452441
0.00440762
0.00465012
0.00516427
0.00574376
0.00588174
0.00552036
0.00575086
0.00621735
0.0061001
0.00581054
0.00547081
0.00508661
0.00471745
0.0044479
0.00441134
0.00425581
0.0040554
0.0039139
0.00383531
0.00381429
0.00386725
0.00404183
0.00427825
0.00453675
0.00476904
0.00493214
0.00498151
0.00489347
0.00469126
0.00435795
0.00371502
0.00322813
0.00245421
0.0011645
0.00104475
0.00115535
0.00429211
0.00577052
0.00509373
0.00449453
0.00434871
0.00457315
0.00512763
0.00583343
0.00612568
0.00591845
0.00631408
0.00705103
0.00721909
0.00719647
0.00713312
0.00700603
0.00679324
0.00651298
0.00619821
0.00585387
0.00553461
0.00528293
0.00510172
0.00499085
0.00496841
0.005059
0.00524757
0.00547393
0.00565973
0.005743
0.00570416
0.00556549
0.00539165
0.005263
0.00504698
0.00462931
0.00410484
0.00336891
0.00275052
0.00130974
0.00452958
0.00562814
0.00427201
0.00425162
0.00427687
0.00456149
0.0051575
0.00589354
0.00620496
0.00608037
0.00651357
0.00734607
0.00765781
0.00774924
0.00778879
0.00775687
0.00762462
0.00739507
0.00709741
0.00676899
0.00644972
0.00616549
0.00591651
0.00570196
0.0055548
0.00553683
0.00566192
0.00585408
0.00599447
0.0059923
0.00582962
0.00557016
0.00534123
0.00528568
0.0054633
0.00569705
0.00553494
0.00498882
0.00428588
0.00161175
0.0048406
0.00537385
0.00424715
0.00396204
0.00441658
0.00475236
0.00528628
0.00593384
0.00621928
0.00614715
0.00652195
0.00724401
0.00760839
0.00774181
0.00781463
0.00781867
0.00773259
0.00755502
0.00730794
0.00702639
0.00674904
0.00650551
0.00630296
0.00613143
0.00599304
0.0059418
0.00604146
0.00624331
0.00639413
0.00635499
0.00607584
0.00560563
0.00506154
0.00457564
0.00420894
0.00390438
0.00352858
0.00311914
0.0027576
0.00162092
0.00535426
0.0062341
0.00777368
0.00395806
0.00465575
0.00530195
0.00562184
0.00608775
0.00633652
0.00625991
0.00634624
0.00675598
0.00709002
0.00723373
0.00729784
0.00729937
0.00723177
0.00709241
0.00689296
0.00665813
0.00642052
0.00621348
0.00606459
0.00599689
0.00602324
0.00612602
0.00631688
0.00661456
0.00691054
0.00703558
0.00688463
0.00645443
0.00581179
0.00508931
0.00436482
0.00372157
0.00322378
0.00289999
0.00272857
0.00183273
0.0126262
0.0064051
0.00431131
0.00608063
0.00624022
0.00648305
0.00659456
0.00624363
0.0060493
0.00609442
0.00619742
0.0062323
0.00622472
0.00618561
0.00611319
0.00600301
0.00585639
0.00568354
0.0055028
0.00533777
0.00521529
0.00516937
0.00524832
0.00550142
0.00593502
0.00649062
0.00705992
0.00750717
0.00778383
0.00797263
0.00810743
0.00806936
0.00782786
0.00739957
0.00682515
0.0061884
0.0055881
0.00187593
0.00535518
0.00364558
0.00576551
0.00631767
0.00640781
0.00647094
0.00614582
0.00560187
0.00520922
0.00497575
0.00481534
0.00464912
0.00450258
0.00438026
0.00427608
0.0041807
0.00408614
0.00398859
0.00388997
0.0037982
0.00372728
0.00369889
0.00374668
0.00391964
0.00426832
0.00480054
0.00544053
0.00605752
0.00654321
0.00687847
0.00715339
0.00737903
0.00750088
0.00744242
0.00715341
0.0065288
0.00526346
0.00180815
0.00266704
0.00315806
0.0037245
0.00187098
0.00187261
0.00201657
0.00204279
0.00197958
0.0018452
0.00171669
0.00160827
0.00151656
0.00143765
0.00137092
0.00131277
0.00126098
0.00121411
0.00117109
0.00113116
0.00109377
0.00105866
0.00102588
0.000995872
0.000969573
0.000948692
0.00093618
0.000936738
0.000956246
0.000998594
0.00106208
0.00114404
0.00125208
0.00138658
0.00154474
0.00170426
0.00182299
0.00184985
0.00177556
0.00169253
0.00153312
)
;

boundaryField
{
    floor
    {
        type            compressible::alphatWallFunction;
        Prt             0.85;
        value           nonuniform List<scalar> 
29
(
9.08294e-05
7.02693e-05
8.40697e-05
8.5931e-05
7.96606e-05
7.13643e-05
6.06348e-05
4.95607e-05
3.47451e-05
2.47106e-05
2.41259e-05
2.47024e-05
2.43485e-05
2.42475e-05
2.59335e-05
2.92679e-05
3.73535e-05
5.26944e-05
6.0911e-05
5.87667e-05
5.8766e-05
8.46931e-05
9.25418e-05
0.000142246
9.08284e-05
7.02685e-05
9.9131e-05
0.000135818
0.000152055
)
;
    }
    ceiling
    {
        type            compressible::alphatWallFunction;
        Prt             0.85;
        value           nonuniform List<scalar> 
43
(
0.000362793
0.000424276
0.000493995
0.000260394
0.000260601
0.000279406
0.000282808
0.000274565
0.00025697
0.000240017
0.000225606
0.000213332
0.000202703
0.000193664
0.000185745
0.000178659
0.000172216
0.000166278
0.000160742
0.00015554
0.000150635
0.000146039
0.000141817
0.000138105
0.000135151
0.000133378
0.00013346
0.000136227
0.000142207
0.000151114
0.00016253
0.000177428
0.000195771
0.000217092
0.000238362
0.000254055
0.00025759
0.000247806
0.000236812
0.000215539
0.000689061
0.000791801
0.000689213
)
;
    }
    sWall
    {
        type            compressible::alphatWallFunction;
        Prt             0.85;
        value           uniform 0.000361673;
    }
    nWall
    {
        type            compressible::alphatWallFunction;
        Prt             0.85;
        value           nonuniform List<scalar> 6(0.000163682 0.000184885 0.000225628 0.000260609 0.00025171 0.000215171);
    }
    sideWalls
    {
        type            empty;
    }
    glass1
    {
        type            compressible::alphatWallFunction;
        Prt             0.85;
        value           nonuniform List<scalar> 9(0.000215745 0.000227056 0.00025309 0.000487604 0.000527458 0.000554914 0.000583131 0.000619898 0.000680209);
    }
    glass2
    {
        type            compressible::alphatWallFunction;
        Prt             0.85;
        value           nonuniform List<scalar> 2(0.000225174 0.000253187);
    }
    sun
    {
        type            compressible::alphatWallFunction;
        Prt             0.85;
        value           nonuniform List<scalar> 
14
(
0.000220604
0.000243484
0.000263188
0.000251253
0.000209557
0.000181103
0.000152721
0.000137042
0.000123754
0.000113046
0.000105407
0.000100071
9.60794e-05
9.3079e-05
)
;
    }
    heatsource1
    {
        type            compressible::alphatWallFunction;
        Prt             0.85;
        value           nonuniform List<scalar> 3(0.000165366 0.000148691 0.000164101);
    }
    heatsource2
    {
        type            compressible::alphatWallFunction;
        Prt             0.85;
        value           nonuniform List<scalar> 4(9.77528e-05 7.18843e-05 7.18834e-05 0.000109759);
    }
    Table_master
    {
        type            compressible::alphatWallFunction;
        Prt             0.85;
        value           nonuniform List<scalar> 9(5.80141e-05 4.45416e-05 3.83418e-05 3.42614e-05 3.07373e-05 2.73578e-05 2.49026e-05 3.56402e-05 7.33883e-05);
    }
    Table_slave
    {
        type            compressible::alphatWallFunction;
        Prt             0.85;
        value           nonuniform List<scalar> 9(0.00013276 0.000137862 0.000144483 0.000151908 0.000159652 0.000167798 0.000173329 0.00017381 0.000169043);
    }
    inlet
    {
        type            fixedValue;
        value           uniform 1.94e-05;
    }
    outlet
    {
        type            zeroGradient;
    }
}


// ************************************************************************* //
