/*--------------------------------*- C++ -*----------------------------------*\
  =========                 |
  \\      /  F ield         | OpenFOAM: The Open Source CFD Toolbox
   \\    /   O peration     | Website:  https://openfoam.org
    \\  /    A nd           | Version:  6
     \\/     M anipulation  |
\*---------------------------------------------------------------------------*/
FoamFile
{
    version     2.0;
    format      ascii;
    class       volScalarField;
    location    "130";
    object      epsilon;
}
// * * * * * * * * * * * * * * * * * * * * * * * * * * * * * * * * * * * * * //

dimensions      [0 2 -3 0 0 0 0];

internalField   nonuniform List<scalar> 
459
(
0.000881351
0.00120049
0.00153508
0.00131975
0.000741717
0.000469747
0.000277707
0.000199838
0.000147128
0.000112485
9.16089e-05
7.87601e-05
7.00225e-05
6.39237e-05
5.96078e-05
2.91179e-05
4.78271e-05
5.08718e-05
4.11222e-05
3.03585e-05
1.96098e-05
1.168e-05
5.02644e-06
2.45735e-06
2.34475e-06
2.45414e-06
2.3854e-06
2.366e-06
2.7007e-06
3.46021e-06
5.91852e-06
1.36274e-05
1.98343e-05
1.80545e-05
0.00103567
0.00204695
0.00394549
0.00515861
0.0049327
0.00347137
0.00150987
0.000537761
0.000218855
0.000102003
6.69612e-05
5.98821e-05
6.11709e-05
6.30003e-05
6.23247e-05
7.32212e-05
3.07962e-05
7.65794e-05
9.22115e-05
6.73766e-05
5.1505e-05
4.34795e-05
2.87462e-05
1.42615e-05
6.41117e-06
3.90724e-06
3.35815e-06
2.89791e-06
2.31196e-06
2.00771e-06
3.05826e-06
7.56108e-06
2.11687e-05
4.85846e-05
7.46767e-05
4.87859e-05
0.00146046
0.0039391
0.00407892
0.00395761
0.00391644
0.00359261
0.00295988
0.0022207
0.0006946
0.000191243
8.58703e-05
6.77333e-05
7.04592e-05
7.8345e-05
8.6404e-05
9.48964e-05
0.000102654
0.000194339
0.000194505
0.000104104
8.59076e-05
8.31779e-05
8.69626e-05
1.73382e-05
8.89963e-06
6.23087e-06
4.82093e-06
3.80013e-06
2.9759e-06
2.46358e-06
5.2644e-06
3.25246e-05
9.6816e-05
0.000129068
0.00016888
6.27549e-05
0.0118918
0.010029
0.00751996
0.00570393
0.00446497
0.00368852
0.00309289
0.00251497
0.00160321
0.000409762
0.000129314
8.3626e-05
8.08232e-05
8.90169e-05
0.000103935
0.000130803
0.000182593
0.000273989
0.000159438
8.11625e-05
7.10072e-05
7.76377e-05
9.38024e-05
0.000123944
0.000181024
0.000202845
0.000233845
0.000272429
0.000317242
0.00036973
0.000408682
0.000412178
0.000378226
0.000251028
0.000200912
0.000298951
0.000223381
0.0153198
0.0133365
0.00833933
0.00549968
0.00405746
0.00330496
0.0028265
0.00240415
0.00169818
0.000550143
0.000176444
0.000101059
8.97461e-05
9.11021e-05
9.35911e-05
9.49889e-05
9.54165e-05
9.09226e-05
7.10337e-05
6.28519e-05
6.36793e-05
7.02511e-05
8.1329e-05
9.67026e-05
0.000115747
0.00013823
0.000168017
0.000205077
0.00024759
0.000292506
0.000332879
0.000348796
0.000337495
0.000289508
0.000234545
0.000229777
0.000253743
0.000352788
0.000254822
0.000344979
0.0180466
0.0167238
0.00800958
0.00430261
0.00310301
0.00263735
0.00237029
0.00212175
0.00153015
0.000552569
0.000192412
0.000113775
0.000104075
0.000108835
0.00011342
0.000113386
0.000107597
9.77319e-05
8.68711e-05
7.93467e-05
7.6633e-05
7.92483e-05
8.69222e-05
9.97221e-05
0.000118646
0.000146094
0.000184343
0.000232983
0.00028854
0.000344705
0.000394382
0.000431148
0.000455479
0.000470173
0.000432607
0.00039773
0.000398823
0.000403221
0.00037742
0.000502176
0.0211827
0.0208064
0.00763486
0.00268937
0.00222169
0.00205706
0.00194216
0.00179283
0.001292
0.000506642
0.000190849
0.000122381
0.000119721
0.000131367
0.000141506
0.000145087
0.000140823
0.000130554
0.000117927
0.000106439
9.86504e-05
9.59885e-05
9.89685e-05
0.000108538
0.000127316
0.000159579
0.000208407
0.00027279
0.000346755
0.000420592
0.000485326
0.000540313
0.000599833
0.000693698
0.000859595
0.00108606
0.00131806
0.00120978
0.001005
0.000936429
0.0258157
0.0282197
0.0166946
0.0024664
0.00172563
0.00168587
0.00161948
0.00149517
0.00107147
0.000452827
0.000193878
0.000138643
0.000143117
0.000161363
0.000176686
0.000183864
0.000181596
0.000171395
0.000156769
0.000141508
0.000128696
0.000120299
0.000117396
0.000121681
0.000137537
0.000172545
0.000233167
0.000319135
0.00042139
0.000524149
0.000610316
0.000672897
0.000724394
0.000793697
0.000906189
0.00105747
0.00119063
0.00128653
0.00137263
0.000954774
0.0348863
0.0549057
0.067795
0.0100494
0.00181144
0.00157138
0.00143261
0.00128323
0.000925997
0.000427353
0.00023485
0.000187854
0.000190419
0.000206996
0.000221656
0.000228786
0.000226746
0.000216369
0.000200443
0.000182491
0.000165684
0.00015223
0.000143416
0.000140691
0.000148529
0.000177393
0.000240703
0.000346753
0.000491086
0.000655999
0.000810238
0.000923045
0.000982644
0.00100777
0.00101461
0.00103104
0.0010934
0.00123375
0.00146856
0.00138363
0.162999
0.0444509
0.00357473
0.00174373
0.00141209
0.00122299
0.00086107
0.00050687
0.00035342
0.000298419
0.000283969
0.00028363
0.000285357
0.000283664
0.000276434
0.000263593
0.000246523
0.000227425
0.000208658
0.000192214
0.000179561
0.000172087
0.000172416
0.000186498
0.000224748
0.000300857
0.000428898
0.000627494
0.000896894
0.00122954
0.00163385
0.00203958
0.00237463
0.00254845
0.00245987
0.00208761
0.00175802
0.00148196
0.0347487
0.00482069
0.00225322
0.00167905
0.0014652
0.00127313
0.000924237
0.000672001
0.00053864
0.000469201
0.000429579
0.000401986
0.000378895
0.000357129
0.000335458
0.000313598
0.000291788
0.000270609
0.000250866
0.000233496
0.000219508
0.00021007
0.00020683
0.000212573
0.000231927
0.00027131
0.000337599
0.000437509
0.00057445
0.000757399
0.00101354
0.00134474
0.0016989
0.00195865
0.00197579
0.00172915
0.00164411
0.00132728
0.00429612
0.0071298
0.0116981
0.00148451
0.00148863
0.00185897
0.00193137
0.00175481
0.00141983
0.00114279
0.000939377
0.000787506
0.000670751
0.000581521
0.000510521
0.000452373
0.000403695
0.000362212
0.000326337
0.000294969
0.000267404
0.000243269
0.000222487
0.000205281
0.000192267
0.000184729
0.000185031
0.000196798
0.000224063
0.000269479
0.000336744
0.000441265
0.000599018
0.000827995
0.00111178
0.0013607
0.00142168
0.00125709
0.00108869
0.000809229
)
;

boundaryField
{
    floor
    {
        Cmu             0.09;
        kappa           0.41;
        E               9.8;
        type            epsilonWallFunction;
        value           nonuniform List<scalar> 
29
(
5.96078e-05
2.91179e-05
4.78271e-05
5.08718e-05
4.11222e-05
3.03585e-05
1.96098e-05
1.168e-05
5.02644e-06
2.45735e-06
2.34475e-06
2.45414e-06
2.3854e-06
2.366e-06
2.7007e-06
3.46021e-06
5.91852e-06
1.36274e-05
1.98343e-05
1.80545e-05
1.80545e-05
4.87859e-05
6.27549e-05
0.000223381
5.96078e-05
2.91179e-05
7.65794e-05
0.000194339
0.000273989
)
;
    }
    ceiling
    {
        Cmu             0.09;
        kappa           0.41;
        E               9.8;
        type            epsilonWallFunction;
        value           nonuniform List<scalar> 
43
(
0.00429612
0.0071298
0.0116981
0.00148451
0.00148863
0.00185897
0.00193137
0.00175481
0.00141983
0.00114279
0.000939377
0.000787506
0.000670751
0.000581521
0.000510521
0.000452373
0.000403695
0.000362212
0.000326337
0.000294969
0.000267404
0.000243269
0.000222487
0.000205281
0.000192267
0.000184729
0.000185031
0.000196798
0.000224063
0.000269479
0.000336744
0.000441265
0.000599018
0.000827995
0.00111178
0.0013607
0.00142168
0.00125709
0.00108869
0.000809229
0.0348863
0.0549057
0.0347487
)
;
    }
    sWall
    {
        Cmu             0.09;
        kappa           0.41;
        E               9.8;
        type            epsilonWallFunction;
        value           uniform 0.00429612;
    }
    nWall
    {
        Cmu             0.09;
        kappa           0.41;
        E               9.8;
        type            epsilonWallFunction;
        value           nonuniform List<scalar> 6(0.000344979 0.000502176 0.000936429 0.00148196 0.00132728 0.000809229);
    }
    sideWalls
    {
        type            empty;
    }
    glass1
    {
        Cmu             0.09;
        kappa           0.41;
        E               9.8;
        type            epsilonWallFunction;
        value           nonuniform List<scalar> 9(0.000881351 0.00103567 0.00146046 0.0118918 0.0153198 0.0180466 0.0211827 0.0258157 0.0348863);
    }
    glass2
    {
        Cmu             0.09;
        kappa           0.41;
        E               9.8;
        type            epsilonWallFunction;
        value           nonuniform List<scalar> 2(0.000954774 0.00138363);
    }
    sun
    {
        Cmu             0.09;
        kappa           0.41;
        E               9.8;
        type            epsilonWallFunction;
        value           nonuniform List<scalar> 
14
(
0.000881351
0.00120049
0.00153508
0.00131975
0.000741717
0.000469747
0.000277707
0.000199838
0.000147128
0.000112485
9.16089e-05
7.87601e-05
7.00225e-05
6.39237e-05
)
;
    }
    heatsource1
    {
        Cmu             0.09;
        kappa           0.41;
        E               9.8;
        type            epsilonWallFunction;
        value           nonuniform List<scalar> 3(0.000352788 0.000254822 0.000344979);
    }
    heatsource2
    {
        Cmu             0.09;
        kappa           0.41;
        E               9.8;
        type            epsilonWallFunction;
        value           nonuniform List<scalar> 4(7.32212e-05 3.07962e-05 3.07962e-05 0.000102654);
    }
    Table_master
    {
        Cmu             0.09;
        kappa           0.41;
        E               9.8;
        type            epsilonWallFunction;
        value           nonuniform List<scalar> 9(1.73382e-05 8.89963e-06 6.23087e-06 4.82093e-06 3.80013e-06 2.9759e-06 2.46358e-06 5.2644e-06 3.25246e-05);
    }
    Table_slave
    {
        Cmu             0.09;
        kappa           0.41;
        E               9.8;
        type            epsilonWallFunction;
        value           nonuniform List<scalar> 9(0.000181024 0.000202845 0.000233845 0.000272429 0.000317242 0.00036973 0.000408682 0.000412178 0.000378226);
    }
    inlet
    {
        type            turbulentMixingLengthDissipationRateInlet;
        mixingLength    0.01;
        phi             phi;
        k               k;
        value           uniform 3.77336e-06;
    }
    outlet
    {
        type            zeroGradient;
    }
}


// ************************************************************************* //
