/*--------------------------------*- C++ -*----------------------------------*\
  =========                 |
  \\      /  F ield         | OpenFOAM: The Open Source CFD Toolbox
   \\    /   O peration     | Website:  https://openfoam.org
    \\  /    A nd           | Version:  6
     \\/     M anipulation  |
\*---------------------------------------------------------------------------*/
FoamFile
{
    version     2.0;
    format      ascii;
    class       volScalarField;
    location    "130";
    object      nut;
}
// * * * * * * * * * * * * * * * * * * * * * * * * * * * * * * * * * * * * * //

dimensions      [0 2 -1 0 0 0 0];

internalField   nonuniform List<scalar> 
459
(
0.00135524
0.00150233
0.00163062
0.00155126
0.00128047
0.00109951
0.000922852
0.000826779
0.000746475
0.000682518
0.000637341
0.000606016
0.00058272
0.000565293
0.000552284
0.000434895
0.000513166
0.000523851
0.000488053
0.000441148
0.000381368
0.000320885
0.000242228
0.000190699
0.000187744
0.000190641
0.000188844
0.000188322
0.000196835
0.000213818
0.000255611
0.000337373
0.000382384
0.000370653
0.0014304
0.00246298
0.00378932
0.00505601
0.00553201
0.00510739
0.00416044
0.00303963
0.00255942
0.0026582
0.00271556
0.00250604
0.00220444
0.00182608
0.00130548
0.000591534
0.000443196
0.000600424
0.00110432
0.001241
0.00130558
0.0011692
0.00093832
0.000607771
0.00040466
0.000375934
0.000418432
0.00038701
0.000322714
0.000276239
0.000286005
0.000383029
0.000656517
0.0010657
0.00127845
0.000516377
0.00160196
0.00238969
0.00284397
0.00334028
0.00404966
0.00461381
0.00481554
0.0046731
0.00372186
0.00321989
0.00344591
0.00325196
0.00278578
0.00225307
0.00167315
0.00113137
0.00066208
0.000818976
0.00214221
0.00192083
0.00162991
0.00133767
0.00108607
0.000366063
0.000293062
0.000260218
0.000238901
0.00022069
0.00020341
0.000190952
0.000245852
0.000451332
0.00113419
0.00156244
0.00143433
0.000561673
0.0032262
0.00368469
0.00364442
0.00357869
0.00370502
0.00408595
0.00453717
0.00486945
0.00464795
0.00397596
0.00413862
0.00415291
0.00365095
0.00299612
0.00227109
0.00159188
0.00111238
0.000918355
0.00214086
0.00205031
0.00190097
0.00165283
0.00137315
0.00106317
0.000799926
0.000830821
0.000871106
0.000916538
0.000964194
0.0010146
0.00104895
0.0010519
0.00102217
0.00120616
0.0015312
0.00202338
0.000857665
0.0035113
0.00448396
0.00421297
0.00390655
0.00380679
0.00401636
0.00445828
0.0049531
0.00506297
0.00474267
0.00493817
0.00533823
0.00523752
0.00498888
0.0046971
0.00436711
0.00405005
0.00381856
0.00378715
0.00365369
0.00348173
0.00336032
0.00329289
0.00327486
0.00332033
0.00347021
0.00367318
0.00389511
0.00409452
0.00423451
0.00427683
0.00420112
0.00402734
0.00374091
0.00318857
0.00277012
0.0021056
0.000999088
0.000896436
0.000991648
0.00370843
0.00497806
0.00439424
0.00387897
0.00375496
0.00394943
0.00442652
0.00503029
0.0052725
0.00508544
0.0054228
0.00605521
0.00619956
0.00618021
0.00612577
0.00601651
0.00583363
0.00559284
0.00532247
0.00502678
0.00475265
0.00453657
0.00438096
0.00428572
0.0042664
0.00434412
0.00450598
0.00470027
0.00485974
0.00493117
0.00489773
0.00477852
0.00462903
0.00451819
0.00433221
0.00397313
0.00352256
0.00289086
0.00236018
0.00112394
0.00391191
0.00485335
0.00368498
0.00366947
0.00369275
0.00393889
0.00445146
0.00508082
0.00533974
0.00522519
0.00559515
0.00630988
0.00657778
0.0066565
0.00669054
0.00666305
0.00654929
0.00635195
0.00609614
0.00581396
0.00553969
0.00529551
0.00508161
0.00489726
0.00477074
0.00475516
0.00486243
0.00502729
0.00514772
0.00514577
0.00500599
0.00478306
0.00458626
0.00453825
0.00469034
0.0048905
0.00475102
0.00428209
0.00367839
0.00138329
0.00417854
0.00463361
0.00366362
0.00341983
0.00381298
0.00410268
0.00456115
0.00511398
0.00535144
0.00528337
0.00560354
0.00622365
0.00653693
0.00665186
0.00671459
0.00671805
0.00664396
0.00649119
0.00627871
0.00603664
0.00579821
0.00558886
0.00541473
0.00526722
0.00514814
0.00510387
0.00518918
0.00536228
0.00549161
0.00545788
0.00521809
0.00481424
0.00434688
0.00392946
0.0036144
0.00335281
0.00303015
0.0026786
0.00236817
0.00139223
0.0046197
0.00537361
0.00670046
0.00341567
0.00401845
0.00457552
0.00484894
0.00524533
0.00545238
0.00538155
0.00545429
0.00580616
0.00609341
0.00621718
0.00627246
0.00627381
0.00621561
0.00609565
0.00592401
0.00572196
0.00551755
0.00533943
0.00521129
0.00515291
0.0051753
0.00526328
0.00542686
0.00568216
0.00593604
0.00604323
0.00591358
0.00554426
0.00499256
0.00437225
0.00375016
0.00319775
0.00277026
0.00249225
0.00234513
0.00157544
0.0108666
0.00552356
0.0037195
0.00524541
0.00538066
0.00558533
0.00567503
0.00536992
0.00520162
0.00524002
0.00532851
0.00535854
0.00535206
0.0053184
0.00525604
0.00516115
0.00503488
0.00488604
0.00473043
0.00458832
0.00448281
0.00444311
0.0045107
0.00472792
0.00510016
0.00557712
0.00606576
0.0064495
0.0066868
0.00684881
0.00696462
0.0069321
0.00672496
0.00635737
0.00586414
0.00531716
0.00480095
0.00161182
0.00461292
0.00314304
0.00497179
0.00544798
0.00552406
0.00557465
0.00529079
0.00482075
0.00448201
0.00428071
0.00414247
0.00399931
0.00387313
0.00376778
0.00367803
0.00359583
0.00351432
0.00343023
0.00334521
0.00326608
0.00320489
0.00318026
0.00322112
0.00336957
0.00366902
0.00412615
0.00467578
0.00520554
0.00562244
0.00591008
0.00614592
0.00633953
0.00644411
0.00639392
0.00614568
0.00560901
0.00452194
0.00155358
0.00229811
0.00272077
0.00320893
0.0016128
0.00161437
0.00173852
0.00176086
0.00170551
0.00158922
0.00147823
0.00138469
0.00130561
0.00123759
0.00118006
0.00112992
0.00108528
0.00104486
0.00100778
0.000973345
0.000941109
0.000910832
0.000882561
0.000856673
0.000833981
0.000815951
0.000805119
0.000805528
0.000822228
0.000858562
0.00091306
0.000983428
0.0010762
0.00119169
0.00132749
0.00146446
0.0015664
0.00158942
0.00152556
0.00145419
0.00131732
)
;

boundaryField
{
    floor
    {
        type            nutkWallFunction;
        Cmu             0.09;
        kappa           0.41;
        E               9.8;
        value           nonuniform List<scalar> 
29
(
6.63581e-05
5.13366e-05
6.14031e-05
6.27605e-05
5.81866e-05
5.21334e-05
4.43031e-05
3.62197e-05
2.54009e-05
1.80693e-05
1.76406e-05
1.80599e-05
1.77999e-05
1.77254e-05
1.89564e-05
2.13913e-05
2.7294e-05
3.84885e-05
4.44832e-05
4.29219e-05
4.29218e-05
6.18322e-05
6.75597e-05
0.00010384
6.63581e-05
5.13365e-05
7.24e-05
9.91752e-05
0.000111055
)
;
    }
    ceiling
    {
        type            nutkWallFunction;
        Cmu             0.09;
        kappa           0.41;
        E               9.8;
        value           nonuniform List<scalar> 
43
(
0.00026571
0.000310695
0.000361765
0.000190778
0.000190948
0.000204734
0.000207197
0.000201064
0.000188122
0.000175678
0.00016511
0.000156114
0.000148326
0.000141703
0.000135901
0.000130709
0.000125988
0.000121636
0.00011758
0.000113768
0.000110173
0.000106805
0.00010371
0.000100989
9.88211e-05
9.75176e-05
9.75696e-05
9.95843e-05
0.000103947
0.000110448
0.000118781
0.000129656
0.000143045
0.000158608
0.000174133
0.000185585
0.000188162
0.000181011
0.000172979
0.000157454
0.00050532
0.000580121
0.000504625
)
;
    }
    sWall
    {
        type            nutkWallFunction;
        Cmu             0.09;
        kappa           0.41;
        E               9.8;
        value           uniform 0.000265772;
    }
    nWall
    {
        type            nutkWallFunction;
        Cmu             0.09;
        kappa           0.41;
        E               9.8;
        value           nonuniform List<scalar> 6(0.000119728 0.000135185 0.000164938 0.000190658 0.000184157 0.000157467);
    }
    sideWalls
    {
        type            empty;
    }
    glass1
    {
        type            nutkWallFunction;
        Cmu             0.09;
        kappa           0.41;
        E               9.8;
        value           nonuniform List<scalar> 9(0.000161988 0.000170511 0.000190003 0.000364152 0.000393549 0.000413768 0.000434525 0.000461563 0.000505931);
    }
    glass2
    {
        type            nutkWallFunction;
        Cmu             0.09;
        kappa           0.41;
        E               9.8;
        value           nonuniform List<scalar> 2(0.000166024 0.000186668);
    }
    sun
    {
        type            nutkWallFunction;
        Cmu             0.09;
        kappa           0.41;
        E               9.8;
        value           nonuniform List<scalar> 
14
(
0.000161811
0.000178432
0.000192787
0.000183846
0.000153175
0.000132316
0.000111557
0.000100101
9.03951e-05
8.25755e-05
7.69985e-05
7.31027e-05
7.01887e-05
6.79988e-05
)
;
    }
    heatsource1
    {
        type            nutkWallFunction;
        Cmu             0.09;
        kappa           0.41;
        E               9.8;
        value           nonuniform List<scalar> 3(0.000120594 0.000108444 0.000119721);
    }
    heatsource2
    {
        type            nutkWallFunction;
        Cmu             0.09;
        kappa           0.41;
        E               9.8;
        value           nonuniform List<scalar> 4(7.12907e-05 5.24146e-05 5.24146e-05 8.00542e-05);
    }
    Table_master
    {
        type            nutkWallFunction;
        Cmu             0.09;
        kappa           0.41;
        E               9.8;
        value           nonuniform List<scalar> 9(4.22872e-05 3.24612e-05 2.79384e-05 2.49613e-05 2.23904e-05 1.99257e-05 1.81351e-05 2.59559e-05 5.34724e-05);
    }
    Table_slave
    {
        type            nutkWallFunction;
        Cmu             0.09;
        kappa           0.41;
        E               9.8;
        value           nonuniform List<scalar> 9(9.68697e-05 0.000100593 0.000105425 0.000110844 0.000116495 0.000122439 0.000126474 0.000126822 0.00012334);
    }
    inlet
    {
        type            calculated;
        value           uniform 3.3541e-05;
    }
    outlet
    {
        type            calculated;
        value           nonuniform List<scalar> 2(0.00229811 0.00272077);
    }
}


// ************************************************************************* //
