/*--------------------------------*- C++ -*----------------------------------*\
  =========                 |
  \\      /  F ield         | OpenFOAM: The Open Source CFD Toolbox
   \\    /   O peration     | Website:  https://openfoam.org
    \\  /    A nd           | Version:  6
     \\/     M anipulation  |
\*---------------------------------------------------------------------------*/
FoamFile
{
    version     2.0;
    format      ascii;
    class       surfaceScalarField;
    location    "130";
    object      phi;
}
// * * * * * * * * * * * * * * * * * * * * * * * * * * * * * * * * * * * * * //

dimensions      [1 0 -1 0 0 0 0];

internalField   nonuniform List<scalar> 
852
(
-0.00371162
0.00376226
-0.00409267
0.000379986
-0.00342221
-0.000671456
-0.0029858
-0.00043687
-0.0031444
0.000158506
-0.0034673
0.000322915
-0.00344958
-1.76411e-05
-0.00318699
-0.000262518
-0.0027115
-0.000475414
-0.00217413
-0.000537302
-0.00168683
-0.000487225
-0.00126529
-0.000421471
-0.000887226
-0.000377992
-0.000486756
-0.000400393
-0.000482817
-0.000446533
0.000451295
-0.000175432
-0.000271029
0.000256289
-0.000431645
0.000581126
-0.000324762
0.000733927
-0.000152728
0.000633116
0.000100873
0.000283988
0.000349183
-5.2593e-05
0.000336636
-0.000195883
0.0001433
-0.000208701
1.28201e-05
-0.000108328
-0.000100373
0.000103396
-0.000211725
0.000397627
-0.000294247
0.000658066
-0.000260459
0.000800534
-0.000142488
0.00086386
-6.33473e-05
0.000927872
-6.40288e-05
0.000835706
9.21684e-05
0.000841233
-0.00102481
0.00493208
0.000532842
-0.00117859
0.00188345
-0.00202239
0.00188449
-0.000438198
0.0010688
0.000974027
-0.000237349
0.00162874
-0.0015958
0.00134076
-0.00240718
0.000548936
-0.00232876
-0.000553726
-0.00205044
-0.000815529
-0.00175341
-0.00078417
-0.00144576
-0.000729027
-0.00109863
-0.000725029
-0.000720319
-0.00077861
-0.000366303
-0.000836731
0.000287338
-0.000653589
0.000287372
0.000933128
-0.000470483
0.000762712
-0.000100524
0.000396296
-6.51348e-05
0.000306786
-0.000235146
0.000463226
-0.000309056
0.000507657
5.65432e-05
0.000363086
0.000493838
0.000367372
0.000332442
0.000361822
0.000148943
0.0003525
2.22276e-05
0.000342877
-9.06785e-05
0.000338624
-0.000207414
0.000379543
-0.000335129
0.000452896
-0.000333792
0.000407281
-9.68433e-05
0.000408203
-6.42736e-05
0.000582292
-0.000238115
0.00051643
0.000158051
0.00137099
0.00504975
0.000107569
0.00757834
-0.00370741
0.00767921
-0.00212336
0.00680071
0.000440249
0.00544312
0.00233159
0.00379346
0.0032784
0.00184997
0.00328438
-0.000159592
0.0025587
-0.00148467
0.000771495
-0.00172382
-0.000576256
-0.00174676
-0.000761141
-0.00169812
-0.000777562
-0.00159667
-0.000826379
-0.001463
-0.000912164
-0.00132287
-0.000976751
-0.00104902
-0.000927327
-0.000761531
-0.000670854
0.000215365
-0.00093746
0.000166208
-0.000971744
-3.07195e-05
-0.000943136
-0.000263626
-0.000793256
-0.000458815
-8.26965e-05
-0.000653908
0.000411396
0.000744102
0.000893324
0.000915844
0.000825459
0.000618324
0.000283436
-5.01689e-05
-0.000146749
-1.55091e-05
-0.000195471
-0.000524295
0.000270705
-0.000837183
0.000470986
0.000554669
0.0087074
-0.0083599
0.0105095
-0.0055092
0.00983961
-0.00145317
0.00857484
0.0017053
0.00698584
0.00392081
0.00514928
0.00511514
0.00320282
0.0052311
0.00137975
0.0043821
-0.000361993
0.00251368
-0.00124943
0.000311339
-0.00165923
-0.000351234
-0.00189069
-0.000545994
-0.00206394
-0.000653025
-0.00223576
-0.000740233
-0.00242814
-0.00078425
-0.00262233
-0.000733017
-0.00293405
-0.0004497
-0.00264411
-0.00027421
-0.00235744
-7.11844e-05
-0.00219614
5.02113e-06
-0.00211693
-0.000109821
-0.00210876
-0.000271682
-0.00214875
-0.000418722
-0.00234168
-0.00046088
-0.0019989
-0.000342834
-0.00166098
-0.000337982
-0.00127049
-0.000390554
-0.000800905
-0.000469655
-0.00023779
-0.000563182
0.000397286
-0.000635142
0.00103659
-0.000639367
0.00158908
-0.000552561
0.00193267
-0.000343654
0.00169563
4.16465e-05
0.00135138
0.000615032
0.000773259
0.00104916
0.00134863
0.00478889
-0.0128504
0.00588885
-0.00660885
0.00566108
-0.00122509
0.0052089
0.00215777
0.00450081
0.00462914
0.00348494
0.00613123
0.00228286
0.00643346
0.00107961
0.00558575
-8.14972e-06
0.00360199
-0.000898398
0.0012018
-0.00143029
0.000180763
-0.00175286
-0.000223319
-0.00198363
-0.000422162
-0.00217796
-0.000545793
-0.00235334
-0.000608765
-0.00250322
-0.000583026
-0.00251126
-0.000441539
-0.00248564
-0.000299726
-0.00235769
-0.000199021
-0.00219024
-0.000162323
-0.00207608
-0.00022388
-0.00201747
-0.000330189
-0.00200155
-0.000434546
-0.00197508
-0.000487263
-0.00181075
-0.000507073
-0.00158139
-0.000567254
-0.00130148
-0.000670386
-0.000968235
-0.000802811
-0.000585128
-0.000946198
-0.000152363
-0.00106781
0.000319601
-0.00111123
0.000790385
-0.00102325
0.0012067
-0.000759872
0.00148268
-0.000234245
0.00164842
0.000449367
0.00169653
0.00100112
0.00197488
0.00107033
0.000994288
0.000980435
-0.000456887
0.00145103
-0.000403663
0.0013894
-0.013881
0.00188525
-0.0071044
0.00236651
-0.00170607
0.002013
0.00251153
0.00168943
0.00495294
0.00128025
0.00654064
0.00078124
0.00693278
0.000266011
0.00610142
-0.000187344
0.00405592
-0.00073249
0.00174715
-0.00114549
0.000593866
-0.00142426
5.55461e-05
-0.00161945
-0.000226879
-0.00177511
-0.000390037
-0.00190725
-0.000476521
-0.00200426
-0.000485906
-0.00201927
-0.000426426
-0.00197667
-0.000342219
-0.00189373
-0.000281855
-0.00179319
-0.000262764
-0.00171869
-0.00029828
-0.0016813
-0.000367477
-0.0016714
-0.000444352
-0.00164944
-0.000509143
-0.00158154
-0.000574886
-0.00147609
-0.00067263
-0.00133988
-0.000806502
-0.0011751
-0.000967506
-0.000984423
-0.00113678
-0.000769641
-0.00128249
-0.000521395
-0.00135937
-0.00022193
-0.0013226
0.000146659
-0.00112835
0.000636832
-0.000724315
0.00121752
-0.000131223
0.0018321
0.000386631
0.00239569
0.000506821
0.00273668
0.000639523
0.00279155
0.00139623
0.00244806
-0.000518931
-0.0129437
-0.000169423
-0.00745363
-0.000115532
-0.00175972
-0.00088383
0.00328007
-0.000840179
0.00490953
-0.000640852
0.00634158
-0.000501439
0.00679371
-0.000421663
0.00602209
-0.00042158
0.00405632
-0.000613876
0.00193964
-0.000815939
0.000796025
-0.000983965
0.000223654
-0.0011147
-9.60565e-05
-0.00121978
-0.000284868
-0.00130677
-0.000389441
-0.00136666
-0.000425915
-0.00138285
-0.000410125
-0.00135543
-0.00036954
-0.0013032
-0.000333971
-0.00124498
-0.000320885
-0.00120479
-0.000338362
-0.00119355
-0.00037862
-0.00120837
-0.000429438
-0.00123355
-0.000483881
-0.00125767
-0.000550686
-0.0012836
-0.000646622
-0.00131468
-0.000775331
-0.0013525
-0.000929589
-0.00139623
-0.00109294
-0.00143973
-0.00123887
-0.00146667
-0.00133231
-0.00145241
-0.00133674
-0.0013617
-0.00121894
-0.00112152
-0.000964375
-0.000625185
-0.000627434
9.09887e-05
-0.000329407
0.000969497
-0.00037155
0.00200871
-0.000399556
0.00228679
0.00111825
0.00479526
-0.0028493
-0.00962013
-0.00417924
-0.00612341
-0.0037819
-0.0021568
-0.00357505
0.00307348
-0.00281815
0.00415289
-0.00200221
0.00552593
-0.00130977
0.00610164
-0.000774091
0.00548684
-0.000431727
0.00371435
-0.000328291
0.00183637
-0.000346366
0.000814185
-0.000398371
0.00027573
-0.00045718
-3.71712e-05
-0.000514867
-0.000227096
-0.000569518
-0.000334697
-0.000612285
-0.000383047
-0.000632868
-0.000389436
-0.00062864
-0.000373659
-0.000608163
-0.000354337
-0.000584507
-0.000344431
-0.000572733
-0.000350028
-0.000582559
-0.00036869
-0.000617397
-0.000394503
-0.000677405
-0.000423782
-0.000766951
-0.000461057
-0.000897001
-0.000516489
-0.00107715
-0.000595093
-0.00131343
-0.000693207
-0.0016086
-0.000797659
-0.0019607
-0.000886642
-0.00236008
-0.000932795
-0.00278978
-0.000906904
-0.00323044
-0.000778145
-0.00366148
-0.000533201
-0.00408017
-0.000208608
-0.00451227
0.000102842
-0.00512389
0.000240199
-0.00568892
0.000165593
-0.00463328
6.27246e-05
0.000490976
-0.00910142
-0.0152253
-0.010026
-0.00735582
-0.00607542
-0.000876845
-0.00412316
0.00220092
-0.00272319
0.00412627
-0.00158222
0.00496101
-0.000696624
0.00460163
-2.89313e-05
0.00304698
0.000276826
0.00153075
0.000384632
0.000706455
0.000413612
0.000246816
0.000404627
-2.81171e-05
0.000373601
-0.000195991
0.000329954
-0.00029096
0.000283661
-0.000336653
0.000244586
-0.000350252
0.000217334
-0.000346292
0.000199821
-0.000336705
0.000185301
-0.000329793
0.000165133
-0.000329741
0.000132637
-0.00033608
8.36182e-05
-0.000345374
1.3252e-05
-0.000353314
-8.94232e-05
-0.000358288
-0.000243762
-0.000362061
-0.00047189
-0.000366873
-0.000792331
-0.000372664
-0.0012182
-0.000371679
-0.0017581
-0.000346617
-0.00241017
-0.000280585
-0.00314977
-0.000167158
-0.00392525
-2.49606e-06
-0.0046913
0.000233014
-0.00543785
0.000538119
-0.00618289
0.00084806
-0.00702652
0.00108401
-0.00785414
0.000993386
-0.00651209
-0.00127916
-0.0056819
-0.00809789
0.00120745
-0.00605525
-0.00291921
-0.0042271
0.000373042
-0.00266796
0.00256742
-0.00128971
0.00358307
-8.05831e-05
0.00339282
0.00083232
0.00213432
0.00125376
0.00110944
0.00144253
0.000517762
0.00151328
0.000176145
0.00151677
-3.15338e-05
0.00147947
-0.000158611
0.00141885
-0.000230242
0.00134743
-0.000265131
0.00127475
-0.000277462
0.0012062
-0.000277624
0.00114271
-0.000273088
0.00108185
-0.000268799
0.00101961
-0.000267366
0.000952672
-0.000269017
0.000879464
-0.00027204
0.000799614
-0.000273344
0.000710991
-0.000269553
0.000607006
-0.000257972
0.000477206
-0.000236975
0.000310714
-0.000206076
0.000103936
-0.000164803
-0.0001312
-0.000111377
-0.000367394
-4.42773e-05
-0.000579628
4.5202e-05
-0.000782779
0.000200796
-0.000982126
0.000432522
-0.0011459
0.000702064
-0.00121152
0.000913871
-0.000959018
0.000831686
0.000137719
-0.000103175
0.000944585
-0.00208587
-0.00466388
-0.00185124
0.00305843
-0.00338833
-0.00138186
-0.00317059
0.000155548
-0.0020155
0.00141259
-0.000493469
0.00206131
0.00103204
0.00186758
0.00205207
0.00111448
0.00257188
0.000589772
0.00280942
0.000280333
0.00288975
9.59096e-05
0.00287743
-1.91147e-05
0.00281057
-9.16495e-05
0.00271344
-0.000133001
0.00260178
-0.000153363
0.00248555
-0.000161105
0.00237012
-0.000162075
0.00225739
-0.000160218
0.00214689
-0.000158153
0.00203712
-0.000157447
0.0019269
-0.000158652
0.00181638
-0.000161366
0.00170743
-0.000164247
0.00160321
-0.000165193
0.00150694
-0.00016158
0.00142024
-0.000150144
0.00134167
-0.000127394
0.00126861
-9.16428e-05
0.00120343
-4.61074e-05
0.00115328
5.95395e-06
0.00112929
6.92819e-05
0.00116412
0.000166065
0.00129398
0.000302774
0.00154383
0.000452357
0.00192427
0.000533579
0.00237737
0.000378742
0.00247012
-0.000195767
0.00158141
-0.00119701
-0.00299875
-0.00334588
-0.0046747
-0.00161667
-0.00300204
-0.00285043
-0.00144162
0.000616566
0.00248291
0.00359741
0.00418804
0.00446985
0.00456772
0.00455101
0.0044622
0.00433248
0.00418286
0.00402598
0.00386864
0.00371369
0.00356139
0.00341041
0.00325888
0.00310534
0.00294963
0.00279371
0.0026421
0.00250255
0.00238623
0.00230595
0.00227133
0.00228874
0.00236932
0.00254638
0.00285978
0.00332239
0.00386597
0.00425477
0.00406947
0.0028834
)
;

boundaryField
{
    floor
    {
        type            calculated;
        value           nonuniform List<scalar> 
29
(
0
0
0
0
0
0
0
0
0
0
0
0
0
0
0
0
0
0
0
0
-5.50189e-06
-1.32894e-05
-2.0822e-05
-2.06949e-05
-3.85888e-06
-4.69444e-06
-1.12631e-05
-1.48821e-05
-1.56142e-05
)
;
    }
    ceiling
    {
        type            calculated;
        value           nonuniform List<scalar> 
43
(
1.44935e-06
7.49287e-07
6.83362e-07
3.74084e-06
4.16166e-06
4.01624e-06
3.37191e-06
1.45405e-06
1.64465e-07
-6.9703e-07
-1.32533e-06
-1.82322e-06
-2.25912e-06
-2.69782e-06
-3.14422e-06
-3.60378e-06
-4.08239e-06
-4.58611e-06
-5.12083e-06
-5.69165e-06
-6.30221e-06
-6.9536e-06
-7.64306e-06
-8.36181e-06
-9.09177e-06
-9.80045e-06
-1.0436e-05
-1.09327e-05
-1.12435e-05
-1.1377e-05
-1.13708e-05
-1.12163e-05
-1.0937e-05
-1.056e-05
-1.01745e-05
-9.91726e-06
-9.9591e-06
-1.0375e-05
-1.08401e-05
-1.13175e-05
2.21018e-06
7.72527e-07
5.62032e-07
)
;
    }
    sWall
    {
        type            calculated;
        value           uniform -0.000170597;
    }
    nWall
    {
        type            calculated;
        value           nonuniform List<scalar> 6(-5.33381e-05 -6.00896e-05 -6.03249e-05 -7.32953e-05 -8.36069e-05 -0.000103934);
    }
    sideWalls
    {
        type            empty;
        value           nonuniform 0();
    }
    glass1
    {
        type            calculated;
        value           nonuniform List<scalar> 9(-5.1691e-05 -0.000145895 -0.000225954 -0.000239658 -0.000298153 -0.00035851 -0.000418208 -0.000473971 -0.000520652);
    }
    glass2
    {
        type            calculated;
        value           nonuniform List<scalar> 2(-0.000328905 -0.000339067);
    }
    sun
    {
        type            calculated;
        value           uniform 0;
    }
    heatsource1
    {
        type            calculated;
        value           nonuniform List<scalar> 3(2.05341e-07 2.05576e-07 2.05949e-07);
    }
    heatsource2
    {
        type            calculated;
        value           nonuniform List<scalar> 4(5.15024e-08 5.15782e-08 0 0);
    }
    Table_master
    {
        type            calculated;
        value           nonuniform List<scalar> 9(-1.54755e-07 -1.54751e-07 -1.54755e-07 -1.54797e-07 -1.54847e-07 -1.54926e-07 -1.55035e-07 -1.55108e-07 -1.54992e-07);
    }
    Table_slave
    {
        type            calculated;
        value           nonuniform List<scalar> 9(1.53737e-07 1.53847e-07 1.53948e-07 1.54065e-07 1.5421e-07 1.54257e-07 1.54124e-07 1.53949e-07 1.53848e-07);
    }
    inlet
    {
        type            calculated;
        value           uniform -0.000465034;
    }
    outlet
    {
        type            calculated;
        value           nonuniform List<scalar> 2(0.00351529 0.00132834);
    }
}


// ************************************************************************* //
