/*--------------------------------*- C++ -*----------------------------------*\
  =========                 |
  \\      /  F ield         | OpenFOAM: The Open Source CFD Toolbox
   \\    /   O peration     | Website:  https://openfoam.org
    \\  /    A nd           | Version:  6
     \\/     M anipulation  |
\*---------------------------------------------------------------------------*/
FoamFile
{
    version     2.0;
    format      ascii;
    class       volScalarField;
    location    "130";
    object      T;
}
// * * * * * * * * * * * * * * * * * * * * * * * * * * * * * * * * * * * * * //

dimensions      [0 0 0 1 0 0 0];

internalField   nonuniform List<scalar> 
459
(
303.793
303.503
303.368
303.007
302.625
302.437
302.323
302.278
302.247
302.224
302.21
302.201
302.196
302.193
302.199
302.084
302.068
302.066
302.069
302.068
302.059
302.047
302.005
301.928
301.887
301.845
301.806
301.786
301.788
301.804
301.83
301.858
301.874
301.897
304.251
304.344
304.347
304.207
303.918
303.467
302.825
302.498
302.352
302.275
302.242
302.227
302.217
302.208
302.195
302.172
302.113
302.106
302.092
302.083
302.095
302.104
302.069
302.029
301.976
301.908
301.845
301.796
301.756
301.728
301.729
301.761
301.852
301.902
301.898
301.903
304.635
304.517
304.463
304.438
304.331
304.078
303.68
303.242
302.574
302.354
302.287
302.267
302.257
302.246
302.232
302.214
302.19
302.144
302.146
302.165
302.191
302.204
302.196
302
301.947
301.898
301.852
301.806
301.761
301.723
301.736
301.88
302.066
301.981
301.937
301.919
304.57
304.36
304.305
304.298
304.291
304.201
303.963
303.582
303.014
302.466
302.338
302.312
302.304
302.296
302.285
302.27
302.256
302.249
302.24
302.253
302.276
302.291
302.301
302.307
302.311
302.313
302.315
302.317
302.319
302.319
302.315
302.309
302.299
302.271
302.203
302.119
302.057
304.395
304.048
304.003
304.065
304.152
304.162
304.014
303.68
303.135
302.546
302.391
302.363
302.36
302.358
302.353
302.344
302.336
302.33
302.328
302.333
302.341
302.348
302.352
302.353
302.353
302.352
302.351
302.35
302.348
302.346
302.341
302.332
302.318
302.295
302.253
302.192
302.135
302.133
302.165
302.259
304.26
303.789
303.79
303.919
304.067
304.12
303.999
303.665
303.101
302.585
302.44
302.414
302.416
302.419
302.418
302.412
302.404
302.398
302.394
302.394
302.396
302.397
302.398
302.396
302.392
302.388
302.383
302.378
302.373
302.369
302.363
302.355
302.339
302.313
302.276
302.233
302.196
302.178
302.173
302.194
304.121
303.664
303.751
303.924
304.046
304.076
303.934
303.58
303.039
302.614
302.488
302.47
302.476
302.485
302.488
302.484
302.477
302.469
302.462
302.458
302.455
302.452
302.449
302.444
302.436
302.427
302.416
302.407
302.399
302.394
302.389
302.381
302.367
302.346
302.319
302.287
302.267
302.255
302.228
302.225
303.971
303.627
303.752
303.943
304.008
303.994
303.83
303.48
302.996
302.652
302.546
302.533
302.543
302.557
302.564
302.564
302.558
302.549
302.539
302.531
302.523
302.516
302.509
302.501
302.489
302.474
302.457
302.441
302.43
302.423
302.421
302.419
302.414
302.404
302.392
302.388
302.392
302.398
302.404
302.453
303.817
303.521
303.511
303.871
303.924
303.879
303.714
303.398
302.993
302.716
302.634
302.62
302.628
302.641
302.65
302.651
302.647
302.638
302.626
302.614
302.603
302.591
302.58
302.568
302.553
302.534
302.512
302.489
302.47
302.459
302.459
302.47
302.489
302.512
302.538
302.563
302.589
302.617
302.64
302.691
303.047
303.655
303.782
303.752
303.615
303.359
303.019
302.844
302.775
302.752
302.748
302.751
302.753
302.751
302.745
302.736
302.723
302.709
302.694
302.679
302.663
302.647
302.629
302.609
302.586
302.56
302.533
302.508
302.49
302.483
302.483
302.491
302.506
302.523
302.538
302.544
302.517
302.543
303.305
303.571
303.635
303.638
303.547
303.338
303.122
303.011
302.955
302.924
302.907
302.895
302.885
302.875
302.863
302.85
302.834
302.817
302.799
302.78
302.76
302.739
302.718
302.695
302.671
302.644
302.615
302.586
302.559
302.537
302.519
302.506
302.502
302.503
302.506
302.503
302.503
302.536
303.395
303.347
303.36
303.513
303.544
303.553
303.506
303.354
303.254
303.193
303.153
303.124
303.102
303.08
303.06
303.04
303.019
302.999
302.978
302.956
302.934
302.91
302.886
302.861
302.835
302.809
302.782
302.754
302.726
302.698
302.67
302.641
302.612
302.584
302.56
302.542
302.531
302.523
302.518
302.541
)
;

boundaryField
{
    floor
    {
        type            wallHeatTransfer;
        Tinf            uniform 305.2;
        alphaWall       uniform 0.24;
        value           nonuniform List<scalar> 
29
(
302.711
302.707
302.63
302.62
302.65
302.689
302.742
302.809
302.913
302.983
302.964
302.927
302.905
302.894
302.871
302.836
302.759
302.641
302.595
302.627
302.627
302.492
302.473
302.45
302.711
302.707
302.605
302.539
302.6
)
;
    }
    ceiling
    {
        type            wallHeatTransfer;
        Tinf            uniform 303.2;
        alphaWall       uniform 0.24;
        value           nonuniform List<scalar> 
43
(
303.384
303.34
303.353
303.489
303.517
303.527
303.484
303.343
303.25
303.193
303.157
303.131
303.111
303.092
303.074
303.056
303.039
303.021
303.003
302.985
302.966
302.946
302.925
302.904
302.882
302.86
302.836
302.812
302.785
302.758
302.73
302.7
302.669
302.639
302.613
302.594
302.583
302.578
302.575
302.601
303.796
303.512
303.301
)
;
    }
    sWall
    {
        type            wallHeatTransfer;
        Tinf            uniform 315.2;
        alphaWall       uniform 0.36;
        value           uniform 304.399;
    }
    nWall
    {
        type            wallHeatTransfer;
        Tinf            uniform 307.2;
        alphaWall       uniform 0.36;
        value           nonuniform List<scalar> 6(303.048 302.924 302.848 303.063 303.072 303.147);
    }
    sideWalls
    {
        type            empty;
    }
    glass1
    {
        type            wallHeatTransfer;
        Tinf            uniform 315.2;
        alphaWall       uniform 4.3;
        value           nonuniform List<scalar> 9(311.098 311.147 311.044 309.415 309.12 308.914 308.707 308.46 308.126);
    }
    glass2
    {
        type            wallHeatTransfer;
        Tinf            uniform 307.2;
        alphaWall       uniform 4.3;
        value           nonuniform List<scalar> 2(305.451 305.426);
    }
    sun
    {
        type            wallHeatTransfer;
        Tinf            uniform 305.2;
        alphaWall       uniform 0.24;
        value           nonuniform List<scalar> 
14
(
303.918
303.642
303.509
303.182
302.864
302.724
302.664
302.654
302.655
302.663
302.672
302.682
302.69
302.699
)
;
    }
    heatsource1
    {
        type            fixedGradient;
        gradient        uniform 0;
    }
    heatsource2
    {
        type            fixedGradient;
        gradient        uniform 0;
    }
    Table_master
    {
        type            zeroGradient;
    }
    Table_slave
    {
        type            zeroGradient;
    }
    inlet
    {
        type            fixedValue;
        value           uniform 290.15;
    }
    outlet
    {
        type            zeroGradient;
    }
}


// ************************************************************************* //
