/*--------------------------------*- C++ -*----------------------------------*\
  =========                 |
  \\      /  F ield         | OpenFOAM: The Open Source CFD Toolbox
   \\    /   O peration     | Website:  https://openfoam.org
    \\  /    A nd           | Version:  6
     \\/     M anipulation  |
\*---------------------------------------------------------------------------*/
FoamFile
{
    version     2.0;
    format      ascii;
    class       volVectorField;
    location    "130";
    object      U;
}
// * * * * * * * * * * * * * * * * * * * * * * * * * * * * * * * * * * * * * //

dimensions      [0 1 -1 0 0 0 0];

internalField   nonuniform List<vector> 
459
(
(-0.0489961 0.0827545 0)
(-0.181205 -0.00144727 0)
(-0.146204 -0.0183691 0)
(-0.133917 -0.000236837 0)
(-0.135896 0.00670774 0)
(-0.145265 -0.00114943 0)
(-0.15225 -0.0100475 0)
(-0.143351 -0.0147851 0)
(-0.126622 -0.018824 0)
(-0.104811 -0.0189041 0)
(-0.0830021 -0.0166212 0)
(-0.0627171 -0.0143186 0)
(-0.0432892 -0.0133808 0)
(-0.0307604 -0.0152296 0)
(-0.05778 -0.0187858 0)
(0.0374866 0.00880849 0)
(-0.0175053 -0.0133421 0)
(0.000805445 -0.0167242 0)
(0.0156106 -0.0138215 0)
(0.0272398 -0.00894242 0)
(0.0318909 -0.00130554 0)
(0.0246974 0.0071745 0)
(0.00453742 0.00874134 0)
(-0.00916187 0.00171871 0)
(-0.00961129 -0.00128578 0)
(-0.00655352 -0.00382654 0)
(0.000903375 -0.00725778 0)
(0.0113746 -0.00982091 0)
(0.02198 -0.00883703 0)
(0.0310818 -0.00551432 0)
(0.0365556 -0.00275393 0)
(0.0383954 -0.00434089 0)
(0.0439134 -0.000982493 0)
(-0.0144122 0.0204583 0)
(0.195911 0.181348 0)
(-0.0229723 -0.0523806 0)
(0.0844178 -0.0740267 0)
(0.0771724 -0.0202447 0)
(0.0637825 0.0268491 0)
(0.0254324 0.0447639 0)
(-0.0475007 0.0178822 0)
(-0.0949277 -0.013164 0)
(-0.104013 -0.0291067 0)
(-0.0946098 -0.0331748 0)
(-0.082077 -0.0302648 0)
(-0.0689147 -0.0271419 0)
(-0.0544124 -0.0261121 0)
(-0.0391267 -0.0281776 0)
(-0.0261502 -0.0327612 0)
(-0.00947328 -0.0344549 0)
(0.0196852 0.00064016 0)
(0.116822 -0.00011555 0)
(0.0403418 -0.00397275 0)
(0.0172804 -0.00778548 0)
(0.00998527 -0.00992306 0)
(0.0113503 -0.00857406 0)
(0.0230143 0.00559403 0)
(0.0232271 0.0169267 0)
(0.0142818 0.0145837 0)
(0.0138011 0.00716799 0)
(0.0153572 0.00135439 0)
(0.0154721 -0.00387592 0)
(0.015403 -0.00903384 0)
(0.0163801 -0.0139283 0)
(0.0156983 -0.0138231 0)
(0.016847 -0.00846898 0)
(0.0209129 -0.0054157 0)
(0.0217245 -0.0102878 0)
(0.0356279 -0.00168849 0)
(-0.0671682 0.0432969 0)
(0.461282 0.296999 0)
(0.306354 0.000420836 0)
(0.313254 -0.0303057 0)
(0.31674 0.0311044 0)
(0.273522 0.086853 0)
(0.202725 0.113516 0)
(0.121723 0.107619 0)
(0.0400434 0.0740112 0)
(-0.0537685 -0.00842192 0)
(-0.0727512 -0.0343792 0)
(-0.0754887 -0.0358815 0)
(-0.0744224 -0.034821 0)
(-0.0707994 -0.0359914 0)
(-0.0654647 -0.0394605 0)
(-0.059661 -0.04271 0)
(-0.0546048 -0.0410192 0)
(-0.0534189 -0.0326844 0)
(0.0703549 -0.00643836 0)
(-0.0461991 0.00294033 0)
(-0.0422084 0.000175771 0)
(-0.0411806 -0.00978838 0)
(-0.0388519 -0.0173591 0)
(-0.0380384 -0.018908 0)
(0.0264628 0.0200918 0)
(0.0255115 0.0133841 0)
(0.033789 0.00618263 0)
(0.0397158 -2.1411e-05 0)
(0.0388718 -0.00533758 0)
(0.0325866 -0.0102562 0)
(0.0218152 -0.0150166 0)
(-0.000136435 -0.0133325 0)
(-0.0192 0.000502633 0)
(0.0187219 0.00186369 0)
(-6.71189e-05 0.0105709 0)
(-0.0297555 0.0235733 0)
(-0.150501 0.0468684 0)
(0.733545 -0.299568 0)
(0.385365 -0.257774 0)
(0.403282 -0.138677 0)
(0.411851 -0.00641053 0)
(0.350691 0.105723 0)
(0.265997 0.169536 0)
(0.179463 0.182257 0)
(0.0962991 0.153071 0)
(0.0150352 0.0802479 0)
(-0.0454694 -0.00742035 0)
(-0.065024 -0.025745 0)
(-0.0768326 -0.0296756 0)
(-0.0848552 -0.0325906 0)
(-0.0918019 -0.0353679 0)
(-0.0997527 -0.0353271 0)
(-0.110515 -0.0274464 0)
(-0.122726 -0.00489196 0)
(-0.120989 0.0367683 0)
(-0.101062 0.0066146 0)
(-0.0993954 0.004032 0)
(-0.0923162 -0.00426488 0)
(-0.0901109 -0.01282 0)
(-0.0927269 -0.0197566 0)
(-0.0978622 -0.0222756 0)
(-0.0940849 -0.0144698 0)
(-0.0790922 -0.0139743 0)
(-0.0629891 -0.0161605 0)
(-0.044391 -0.019374 0)
(-0.0233959 -0.0232824 0)
(0.00327593 -0.0269802 0)
(0.0312907 -0.0269749 0)
(0.0557767 -0.0233646 0)
(0.0761622 -0.0169932 0)
(0.0835113 -0.00497206 0)
(0.0708219 0.0172619 0)
(0.0608195 0.0322027 0)
(-0.0878629 0.0412142 0)
(0.706099 -0.505122 0)
(0.110078 -0.28663 0)
(0.206029 -0.0639096 0)
(0.25295 0.0925299 0)
(0.228444 0.191258 0)
(0.179238 0.24588 0)
(0.125481 0.254136 0)
(0.0705955 0.218186 0)
(0.0159632 0.137206 0)
(-0.028042 0.0351486 0)
(-0.0524888 -0.0036897 0)
(-0.0694118 -0.0167878 0)
(-0.0805771 -0.0233475 0)
(-0.0895818 -0.028166 0)
(-0.0978089 -0.0314145 0)
(-0.104916 -0.0318404 0)
(-0.108473 -0.0270092 0)
(-0.108137 -0.0150246 0)
(-0.103895 -0.00683675 0)
(-0.0974782 -0.00366084 0)
(-0.0911097 -0.00702879 0)
(-0.0876095 -0.012552 0)
(-0.0866857 -0.0177598 0)
(-0.0860951 -0.0202142 0)
(-0.0818601 -0.0185577 0)
(-0.0732193 -0.0202544 0)
(-0.0621026 -0.0239663 0)
(-0.0488059 -0.0290338 0)
(-0.0335277 -0.0347463 0)
(-0.0165085 -0.0394071 0)
(0.00333494 -0.0404889 0)
(0.0230805 -0.0356922 0)
(0.041635 -0.0235883 0)
(0.0590808 -0.00172779 0)
(0.0708302 0.0256306 0)
(0.0839176 0.0469823 0)
(0.0541136 0.0547542 0)
(0.0911576 0.0481901 0)
(0.0900877 0.0477624 0)
(-0.376964 -0.0287606 0)
(0.661974 -0.603186 0)
(-0.137619 -0.304689 0)
(0.0832091 -0.0456711 0)
(0.116648 0.109634 0)
(0.0933762 0.21634 0)
(0.0698083 0.281293 0)
(0.0466709 0.294533 0)
(0.0217507 0.256789 0)
(-0.00445188 0.16702 0)
(-0.0248406 0.0647324 0)
(-0.0417239 0.0178032 0)
(-0.0561525 -0.00304482 0)
(-0.0657855 -0.0134117 0)
(-0.0731425 -0.0194176 0)
(-0.0794643 -0.0224316 0)
(-0.0845171 -0.0221781 0)
(-0.0869114 -0.0188051 0)
(-0.0862366 -0.0144607 0)
(-0.0832933 -0.0109467 0)
(-0.0790648 -0.00963955 0)
(-0.0750976 -0.0115611 0)
(-0.0727673 -0.0152656 0)
(-0.0720307 -0.0192761 0)
(-0.0715937 -0.0222607 0)
(-0.0696918 -0.0243389 0)
(-0.0658327 -0.0279979 0)
(-0.0605002 -0.0333359 0)
(-0.053933 -0.0398702 0)
(-0.0463152 -0.046802 0)
(-0.0378016 -0.0527389 0)
(-0.0281544 -0.0556386 0)
(-0.0172246 -0.0535561 0)
(-0.00419594 -0.0441445 0)
(0.0136071 -0.023276 0)
(0.0421826 0.00823905 0)
(0.0701916 0.0334327 0)
(0.0865346 0.038745 0)
(0.113185 0.0388922 0)
(0.137818 0.066421 0)
(-0.0366919 0.0779931 0)
(0.554435 -0.5854 0)
(-0.229829 -0.321237 0)
(0.0262745 -0.0822583 0)
(-0.00222384 0.138864 0)
(-0.0327319 0.22273 0)
(-0.0273863 0.287403 0)
(-0.0222285 0.303715 0)
(-0.0202067 0.26629 0)
(-0.0218878 0.176935 0)
(-0.0242578 0.0809542 0)
(-0.0312356 0.0309195 0)
(-0.0389154 0.006769 0)
(-0.0454192 -0.00647472 0)
(-0.0502314 -0.014166 0)
(-0.0544359 -0.018353 0)
(-0.05773 -0.0194352 0)
(-0.0594052 -0.0179585 0)
(-0.0590972 -0.0155612 0)
(-0.0572351 -0.0135382 0)
(-0.0546585 -0.0128025 0)
(-0.0523813 -0.0138511 0)
(-0.0512511 -0.0161629 0)
(-0.0514195 -0.0190063 0)
(-0.0523799 -0.0218507 0)
(-0.0534378 -0.0250563 0)
(-0.0544116 -0.029607 0)
(-0.0555116 -0.0356625 0)
(-0.0568981 -0.0428398 0)
(-0.0586475 -0.0503626 0)
(-0.0606818 -0.0569926 0)
(-0.062588 -0.0610857 0)
(-0.0636265 -0.0610778 0)
(-0.0624892 -0.0558154 0)
(-0.0563536 -0.0450843 0)
(-0.0407645 -0.0309789 0)
(-0.00729356 -0.0177607 0)
(0.0236658 -0.0260492 0)
(0.0605634 -0.0359736 0)
(0.120155 0.0164922 0)
(-0.0542617 0.139885 0)
(0.356123 -0.466216 0)
(-0.289988 -0.268091 0)
(-0.190358 -0.08971 0)
(-0.109775 0.152646 0)
(-0.139642 0.204917 0)
(-0.101056 0.2641 0)
(-0.0694169 0.284728 0)
(-0.0447837 0.252688 0)
(-0.0276536 0.170301 0)
(-0.0161801 0.0837523 0)
(-0.0138811 0.0356881 0)
(-0.0156088 0.0112126 0)
(-0.0183726 -0.00261574 0)
(-0.0207096 -0.0108991 0)
(-0.0232388 -0.0155896 0)
(-0.025488 -0.0175479 0)
(-0.0269448 -0.0174471 0)
(-0.0272926 -0.0163287 0)
(-0.0266785 -0.0151794 0)
(-0.0255983 -0.0146438 0)
(-0.0247059 -0.0150559 0)
(-0.0245899 -0.0162496 0)
(-0.0255265 -0.0178826 0)
(-0.027523 -0.0197496 0)
(-0.0306143 -0.0221376 0)
(-0.0351676 -0.0256247 0)
(-0.0416853 -0.0304195 0)
(-0.0505088 -0.0362439 0)
(-0.0618327 -0.0423748 0)
(-0.075772 -0.0476828 0)
(-0.09219 -0.0506945 0)
(-0.110551 -0.0497288 0)
(-0.1299 -0.042877 0)
(-0.149025 -0.0285125 0)
(-0.167538 -0.00667246 0)
(-0.184766 0.0196761 0)
(-0.198475 0.0468493 0)
(-0.207526 0.0813453 0)
(-0.254884 0.131899 0)
(-0.546992 0.20417 0)
(0.0677813 -0.31512 0)
(-0.585821 -0.232798 0)
(-0.734923 -0.179897 0)
(-0.187865 0.0710011 0)
(-0.223853 0.150862 0)
(-0.14513 0.21571 0)
(-0.0911002 0.244232 0)
(-0.0488121 0.221551 0)
(-0.0163332 0.15034 0)
(0.00765262 0.0736892 0)
(0.0160365 0.0334703 0)
(0.0182081 0.0117123 0)
(0.0181015 -0.00117417 0)
(0.0171564 -0.00908219 0)
(0.0153719 -0.0136229 0)
(0.0132541 -0.0158304 0)
(0.0112839 -0.0164326 0)
(0.00980417 -0.0161387 0)
(0.00886477 -0.0156029 0)
(0.00824945 -0.0152796 0)
(0.00759337 -0.0154002 0)
(0.00653174 -0.0159195 0)
(0.00483103 -0.0166405 0)
(0.00236291 -0.0173735 0)
(-0.0011801 -0.0181741 0)
(-0.00643792 -0.0193135 0)
(-0.0143941 -0.0209963 0)
(-0.025978 -0.0231988 0)
(-0.0417752 -0.0254551 0)
(-0.0623899 -0.0268762 0)
(-0.0881652 -0.0265146 0)
(-0.118621 -0.0237645 0)
(-0.152156 -0.0183567 0)
(-0.185219 -0.0106581 0)
(-0.218742 -0.00440437 0)
(-0.251265 -0.00573948 0)
(-0.278968 -0.0227392 0)
(-0.300204 -0.0634154 0)
(-0.34176 -0.124891 0)
(-0.598148 -0.194739 0)
(-1.65369 -0.210743 0)
(-0.0738203 -0.105417 0)
(-0.227131 0.0569309 0)
(-0.146451 0.148009 0)
(-0.0846748 0.18755 0)
(-0.0307244 0.17662 0)
(0.0184787 0.112993 0)
(0.0479125 0.0587862 0)
(0.0606797 0.0280467 0)
(0.0652103 0.0104483 0)
(0.0661402 -0.000280773 0)
(0.0649973 -0.00696513 0)
(0.0626377 -0.0108067 0)
(0.0596143 -0.0127305 0)
(0.0563812 -0.0134409 0)
(0.0532692 -0.0134749 0)
(0.0504147 -0.0132389 0)
(0.0477692 -0.0130074 0)
(0.0451703 -0.0129214 0)
(0.0424367 -0.0129809 0)
(0.0394544 -0.0130813 0)
(0.0361934 -0.0130614 0)
(0.0326256 -0.0127938 0)
(0.0285903 -0.0122443 0)
(0.0237094 -0.0114463 0)
(0.0174671 -0.010444 0)
(0.00958184 -0.00913046 0)
(-0.000165249 -0.00713868 0)
(-0.0109223 -0.00393077 0)
(-0.0205619 0.00120244 0)
(-0.0278105 0.00919712 0)
(-0.0367958 0.0205444 0)
(-0.0454744 0.0359585 0)
(-0.052433 0.053087 0)
(-0.0549676 0.0661767 0)
(-0.0440563 0.0602818 0)
(0.107719 -0.0481531 0)
(-0.189396 -0.226165 0)
(-0.459519 0.0587617 0)
(0.0265353 -0.116537 0)
(-0.153561 -0.0102284 0)
(-0.116822 0.0789839 0)
(-0.057523 0.122668 0)
(0.01219 0.116986 0)
(0.0690002 0.0707877 0)
(0.102779 0.0362393 0)
(0.119039 0.0158458 0)
(0.124883 0.00432003 0)
(0.12545 -0.00208751 0)
(0.123073 -0.00537773 0)
(0.1192 -0.00660018 0)
(0.114512 -0.00646951 0)
(0.109472 -0.00550722 0)
(0.104401 -0.00406822 0)
(0.0994545 -0.00238265 0)
(0.0946508 -0.000592572 0)
(0.0899301 0.00122551 0)
(0.0852173 0.00305196 0)
(0.0804778 0.00491411 0)
(0.0757504 0.00687766 0)
(0.0711491 0.00901886 0)
(0.0668307 0.01138 0)
(0.0629208 0.0139409 0)
(0.0594011 0.0166285 0)
(0.0561344 0.0193687 0)
(0.053047 0.0219594 0)
(0.0505082 0.0240228 0)
(0.049125 0.0254037 0)
(0.0494187 0.0282315 0)
(0.0527602 0.0337746 0)
(0.0603134 0.0413296 0)
(0.0718016 0.0476067 0)
(0.0853296 0.0438597 0)
(0.10652 0.00986057 0)
(0.142307 -0.0598072 0)
(-0.159474 -0.163076 0)
(0.197594 -0.150486 0)
(-0.202697 -0.0552722 0)
(-0.212415 0.116833 0)
(-0.0387784 -0.0219724 0)
(-0.132886 0.0252092 0)
(-0.0948349 0.0602315 0)
(-0.0252049 0.0859441 0)
(0.0705455 0.0751694 0)
(0.131404 0.0496798 0)
(0.170359 0.0300367 0)
(0.190054 0.0162141 0)
(0.197371 0.00603998 0)
(0.198077 -0.00206574 0)
(0.194896 -0.00892602 0)
(0.189741 -0.0149314 0)
(0.183499 -0.0203927 0)
(0.176745 -0.0255879 0)
(0.169873 -0.0307549 0)
(0.163093 -0.0360929 0)
(0.156462 -0.0417648 0)
(0.149941 -0.0478913 0)
(0.143448 -0.0545354 0)
(0.136897 -0.0616798 0)
(0.130241 -0.0691918 0)
(0.123508 -0.0767697 0)
(0.116828 -0.0838702 0)
(0.110461 -0.0896792 0)
(0.104823 -0.0932966 0)
(0.100468 -0.0942312 0)
(0.0979767 -0.0927839 0)
(0.0977377 -0.0891244 0)
(0.0998286 -0.0823225 0)
(0.105255 -0.0724096 0)
(0.115511 -0.0597412 0)
(0.131682 -0.0463948 0)
(0.152467 -0.0367397 0)
(0.172991 -0.0378226 0)
(0.184011 -0.0538098 0)
(0.188066 -0.081032 0)
(-0.126799 -0.134696 0)
)
;

boundaryField
{
    floor
    {
        type            noSlip;
    }
    ceiling
    {
        type            noSlip;
    }
    sWall
    {
        type            noSlip;
    }
    nWall
    {
        type            noSlip;
    }
    sideWalls
    {
        type            empty;
    }
    glass1
    {
        type            noSlip;
    }
    glass2
    {
        type            noSlip;
    }
    sun
    {
        type            noSlip;
    }
    heatsource1
    {
        type            noSlip;
    }
    heatsource2
    {
        type            noSlip;
    }
    Table_master
    {
        type            noSlip;
    }
    Table_slave
    {
        type            noSlip;
    }
    inlet
    {
        type            fixedValue;
        value           uniform (0.1 0 0);
    }
    outlet
    {
        type            zeroGradient;
    }
}


// ************************************************************************* //
