/*--------------------------------*- C++ -*----------------------------------*\
  =========                 |
  \\      /  F ield         | OpenFOAM: The Open Source CFD Toolbox
   \\    /   O peration     | Website:  https://openfoam.org
    \\  /    A nd           | Version:  6
     \\/     M anipulation  |
\*---------------------------------------------------------------------------*/
FoamFile
{
    version     2.0;
    format      ascii;
    class       volScalarField;
    location    "300";
    object      epsilon;
}
// * * * * * * * * * * * * * * * * * * * * * * * * * * * * * * * * * * * * * //

dimensions      [0 2 -3 0 0 0 0];

internalField   nonuniform List<scalar> 
459
(
0.000375148
0.000462067
0.000449306
0.000506201
0.000563649
0.000619743
0.000675743
0.000734385
0.000783068
0.00080683
0.000794708
0.000741588
0.000655109
0.000557142
0.000469319
3.35801e-05
5.00902e-05
4.98761e-05
3.98934e-05
3.3908e-05
2.87235e-05
2.26551e-05
1.79802e-05
1.42686e-05
1.14542e-05
9.4203e-06
7.98458e-06
6.97999e-06
6.32013e-06
6.27293e-06
6.51489e-06
8.4939e-06
2.26096e-05
1.67538e-05
0.00114744
0.00188548
0.000432338
0.000383805
0.000391154
0.000408287
0.00043457
0.000472952
0.000515836
0.000548429
0.000555321
0.000526629
0.000465014
0.000390826
0.000353975
0.000458198
0.00017816
0.000114485
9.71821e-05
6.55804e-05
4.57483e-05
3.57423e-05
3.09102e-05
2.79209e-05
2.33807e-05
1.93983e-05
1.64893e-05
1.45061e-05
1.31658e-05
1.2214e-05
1.14373e-05
1.05358e-05
9.57515e-06
1.38765e-05
8.52973e-05
4.90895e-05
0.00229292
0.00518423
0.000642682
0.000387024
0.000382484
0.000410497
0.000455054
0.000515366
0.000582863
0.000636077
0.000653201
0.000623782
0.000552784
0.000459808
0.000379045
0.000350335
0.00054153
0.000354133
0.000150688
7.6048e-05
5.27696e-05
4.38955e-05
4.31734e-05
8.48478e-05
5.56519e-05
4.04058e-05
3.15225e-05
2.58617e-05
2.19839e-05
1.91496e-05
1.69274e-05
1.51051e-05
1.35284e-05
2.45363e-05
0.000154153
8.45508e-05
0.00392953
0.0109736
0.00116589
0.000425185
0.000389951
0.000429099
0.000494299
0.0005842
0.000685399
0.000759139
0.000779419
0.000742182
0.000657755
0.000544106
0.000427912
0.000344657
0.000380152
0.000468856
0.000364948
0.000103621
6.18982e-05
5.1681e-05
4.78877e-05
5.10629e-05
0.000121156
0.000108509
0.000111909
0.000120162
0.00012776
0.000129577
0.000120899
0.000104514
8.79521e-05
6.72275e-05
0.000146563
0.000357114
0.000105248
0.00616309
0.0192178
0.00237869
0.000540561
0.000410168
0.000449972
0.000542409
0.000689567
0.000845664
0.000936087
0.000946542
0.000891048
0.00078765
0.000651039
0.000499794
0.000359816
0.000268641
0.000276567
0.000145749
8.12465e-05
6.17249e-05
5.61829e-05
5.5139e-05
5.77999e-05
6.82579e-05
7.62919e-05
8.602e-05
9.68398e-05
0.000106582
0.000111498
0.000107332
9.34715e-05
8.16943e-05
7.30195e-05
0.00010037
0.000208988
0.000281981
0.00020074
0.000270361
0.000420728
0.00916579
0.0276855
0.0051883
0.00102206
0.000565694
0.000540954
0.000645798
0.000915469
0.00112754
0.00120119
0.00117037
0.00107601
0.000942182
0.000778781
0.000596884
0.000416982
0.00026406
0.000167597
0.000108266
8.0811e-05
7.20494e-05
7.00889e-05
7.12498e-05
7.63754e-05
8.65025e-05
9.96536e-05
0.000115667
0.000134386
0.000154159
0.000170709
0.000176777
0.000161922
0.000131001
0.000107286
0.00010455
0.000141768
0.000192546
0.000199077
0.000526505
0.000560656
0.0126985
0.0324388
0.0108558
0.00338543
0.00173698
0.0012221
0.00117592
0.00151484
0.00163393
0.00159427
0.00146738
0.00130047
0.00111652
0.00091514
0.000697527
0.000480851
0.000290922
0.00016245
0.000111983
9.77393e-05
9.81374e-05
9.86772e-05
0.000100883
0.000108894
0.000121984
0.00013921
0.000160975
0.000188923
0.000223295
0.00026166
0.000298201
0.000319579
0.000285902
0.000255719
0.000263494
0.000338613
0.000494453
0.000682348
0.00117678
0.00116325
0.0134868
0.0363727
0.0194395
0.0120428
0.0073584
0.00467392
0.00351275
0.00292565
0.00251547
0.00216647
0.00184042
0.00154636
0.00128869
0.00103972
0.000782434
0.000531417
0.000314584
0.000179301
0.000137355
0.00013924
0.000154524
0.000155061
0.000154798
0.000165024
0.00018107
0.0002009
0.000226537
0.00026194
0.000311254
0.000378518
0.000466982
0.000578301
0.000712869
0.000825503
0.0011513
0.00193722
0.00333898
0.00464417
0.01015
0.00233568
0.0124162
0.0209334
0.0171302
0.0128471
0.00950154
0.00702043
0.00537627
0.0042177
0.00338884
0.0027251
0.00216593
0.00173089
0.00141172
0.00112844
0.000837333
0.000558688
0.000329799
0.000219054
0.0001977
0.000225216
0.000268782
0.000269365
0.000262607
0.000273518
0.000288865
0.000305604
0.00032785
0.000361318
0.000413094
0.000493797
0.000616908
0.00079503
0.00103693
0.00135085
0.00173948
0.00219667
0.00259266
0.00286938
0.0031739
0.00196505
0.00723959
0.0103289
0.00844566
0.00684736
0.00562661
0.00464262
0.00371367
0.00284364
0.00213438
0.00167044
0.00141418
0.00117239
0.000889212
0.000611494
0.000422391
0.000330885
0.000328975
0.000387732
0.00047128
0.0005044
0.000517462
0.000530524
0.000529406
0.000531881
0.000542924
0.000561445
0.000587507
0.000628401
0.000702093
0.000835643
0.0010402
0.00131987
0.00166316
0.00205445
0.00245792
0.00294472
0.00214546
0.00142345
0.00578546
0.00960685
0.00791055
0.00603883
0.00470237
0.00373233
0.00295087
0.00218412
0.00159391
0.0012757
0.00117518
0.00110512
0.00105064
0.000963155
0.000811034
0.000635942
0.000582921
0.000807301
0.000752414
0.000961783
0.00111185
0.00109228
0.00103287
0.000992102
0.000976466
0.000966656
0.000951789
0.000934432
0.000931375
0.000986698
0.00111826
0.00133561
0.00162691
0.00198062
0.00238675
0.00248857
0.00136704
0.00135434
0.00372796
0.00436712
0.00495285
0.00578466
0.00478854
0.00393005
0.00314386
0.00217759
0.00139388
0.00102145
0.00085327
0.000835975
0.000876796
0.000914414
0.000877412
0.000825103
0.000775828
0.000726747
0.000685918
0.000550559
0.000488054
0.00055508
0.000627524
0.000632485
0.000620389
0.000619389
0.000629162
0.000642198
0.000657864
0.000685384
0.000746655
0.000839463
0.0009831
0.00118426
0.0014575
0.00168237
0.00166025
0.00129604
0.000917031
0.00101699
)
;

boundaryField
{
    floor
    {
        Cmu             0.09;
        kappa           0.41;
        E               9.8;
        type            epsilonWallFunction;
        value           nonuniform List<scalar> 
29
(
0.000469319
3.35801e-05
5.00902e-05
4.98761e-05
3.98934e-05
3.3908e-05
2.87235e-05
2.26551e-05
1.79802e-05
1.42686e-05
1.14542e-05
9.4203e-06
7.98458e-06
6.97999e-06
6.32013e-06
6.27293e-06
6.51489e-06
8.4939e-06
2.26096e-05
1.67538e-05
1.67538e-05
4.90895e-05
8.45508e-05
0.000105248
0.000469319
3.35801e-05
0.000114485
0.000354133
0.000468856
)
;
    }
    ceiling
    {
        Cmu             0.09;
        kappa           0.41;
        E               9.8;
        type            epsilonWallFunction;
        value           nonuniform List<scalar> 
43
(
0.00372796
0.00436712
0.00495285
0.00578466
0.00478854
0.00393005
0.00314386
0.00217759
0.00139388
0.00102145
0.00085327
0.000835975
0.000876796
0.000914414
0.000877412
0.000825103
0.000775828
0.000726747
0.000685918
0.000550559
0.000488054
0.00055508
0.000627524
0.000632485
0.000620389
0.000619389
0.000629162
0.000642198
0.000657864
0.000685384
0.000746655
0.000839463
0.0009831
0.00118426
0.0014575
0.00168237
0.00166025
0.00129604
0.000917031
0.00101699
0.0124162
0.0209334
0.00578546
)
;
    }
    sWall
    {
        Cmu             0.09;
        kappa           0.41;
        E               9.8;
        type            epsilonWallFunction;
        value           uniform 0.00372796;
    }
    nWall
    {
        Cmu             0.09;
        kappa           0.41;
        E               9.8;
        type            epsilonWallFunction;
        value           nonuniform List<scalar> 6(0.000420728 0.000560656 0.00116325 0.00142345 0.00135434 0.00101699);
    }
    sideWalls
    {
        type            empty;
    }
    glass1
    {
        Cmu             0.09;
        kappa           0.41;
        E               9.8;
        type            epsilonWallFunction;
        value           nonuniform List<scalar> 9(0.000375148 0.00114744 0.00229292 0.00392953 0.00616309 0.00916579 0.0126985 0.0134868 0.0124162);
    }
    glass2
    {
        Cmu             0.09;
        kappa           0.41;
        E               9.8;
        type            epsilonWallFunction;
        value           nonuniform List<scalar> 2(0.00233568 0.00196505);
    }
    sun
    {
        Cmu             0.09;
        kappa           0.41;
        E               9.8;
        type            epsilonWallFunction;
        value           nonuniform List<scalar> 
14
(
0.000375148
0.000462067
0.000449306
0.000506201
0.000563649
0.000619743
0.000675743
0.000734385
0.000783068
0.00080683
0.000794708
0.000741588
0.000655109
0.000557142
)
;
    }
    heatsource1
    {
        Cmu             0.09;
        kappa           0.41;
        E               9.8;
        type            epsilonWallFunction;
        value           nonuniform List<scalar> 3(0.00020074 0.000270361 0.000420728);
    }
    heatsource2
    {
        Cmu             0.09;
        kappa           0.41;
        E               9.8;
        type            epsilonWallFunction;
        value           nonuniform List<scalar> 4(0.000458198 0.00017816 0.00017816 0.00054153);
    }
    Table_master
    {
        Cmu             0.09;
        kappa           0.41;
        E               9.8;
        type            epsilonWallFunction;
        value           nonuniform List<scalar> 9(8.48478e-05 5.56519e-05 4.04058e-05 3.15225e-05 2.58617e-05 2.19839e-05 1.91496e-05 1.69274e-05 1.51051e-05);
    }
    Table_slave
    {
        Cmu             0.09;
        kappa           0.41;
        E               9.8;
        type            epsilonWallFunction;
        value           nonuniform List<scalar> 9(0.000121156 0.000108509 0.000111909 0.000120162 0.00012776 0.000129577 0.000120899 0.000104514 8.79521e-05);
    }
    inlet
    {
        type            turbulentMixingLengthDissipationRateInlet;
        mixingLength    0.01;
        phi             phi;
        k               k;
        value           uniform 0.000101881;
    }
    outlet
    {
        type            zeroGradient;
    }
}


// ************************************************************************* //
