/*--------------------------------*- C++ -*----------------------------------*\
  =========                 |
  \\      /  F ield         | OpenFOAM: The Open Source CFD Toolbox
   \\    /   O peration     | Website:  https://openfoam.org
    \\  /    A nd           | Version:  6
     \\/     M anipulation  |
\*---------------------------------------------------------------------------*/
FoamFile
{
    version     2.0;
    format      ascii;
    class       volScalarField;
    location    "200";
    object      nut;
}
// * * * * * * * * * * * * * * * * * * * * * * * * * * * * * * * * * * * * * //

dimensions      [0 2 -1 0 0 0 0];

internalField   nonuniform List<scalar> 
459
(
0.0014281
0.00159915
0.00168211
0.00178961
0.00190354
0.00201205
0.00208884
0.00212129
0.00208793
0.00196912
0.0018463
0.00170717
0.00155416
0.00141017
0.00124864
0.000686895
0.000816101
0.000955762
0.00105551
0.00109318
0.00107396
0.00100256
0.000925914
0.000857923
0.000799411
0.000748971
0.000705239
0.000666927
0.00063324
0.000602622
0.00057344
0.000543306
0.000508944
0.000459745
0.00178326
0.00483041
0.00504036
0.00593792
0.00672195
0.00731108
0.00780048
0.00821197
0.00847162
0.00837957
0.00800669
0.00743428
0.00652224
0.00512143
0.00336713
0.00143645
0.00121793
0.000670818
0.00155353
0.00285545
0.00376372
0.0043514
0.00428607
0.00285292
0.00232653
0.00200002
0.00177311
0.00160698
0.0014804
0.0013808
0.00128175
0.00117332
0.00106634
0.000967181
0.000895914
0.00049571
0.00207587
0.00670511
0.0064095
0.0071295
0.00754145
0.00782819
0.00815259
0.00866937
0.00924762
0.00953452
0.0095317
0.00927418
0.0087494
0.00765672
0.00598237
0.00374513
0.0013735
0.000695942
0.00166005
0.00286021
0.00425872
0.0052996
0.00511898
0.0013403
0.00115397
0.00100245
0.000882228
0.000787317
0.00071221
0.000652481
0.000606667
0.000574569
0.000662436
0.000786057
0.000935187
0.000510749
0.00235759
0.00828738
0.00699928
0.00750747
0.0075275
0.00745358
0.00760147
0.00820122
0.00891415
0.00945693
0.00970009
0.00967543
0.00942164
0.00879395
0.00763864
0.00578374
0.00299517
0.00148219
0.00154586
0.0023136
0.00380442
0.00549049
0.00670376
0.0063955
0.00152246
0.00137752
0.00126276
0.0011686
0.00108487
0.00100611
0.000928934
0.000850544
0.000766031
0.000700496
0.000730762
0.000940472
0.000523545
0.00264923
0.0101782
0.00810594
0.00820234
0.00777011
0.00724917
0.00730895
0.00792961
0.00875665
0.00942266
0.00976512
0.00982352
0.00968299
0.00934697
0.00868454
0.00752409
0.00577588
0.00491597
0.00539449
0.00644033
0.00769402
0.00875182
0.0093488
0.00920659
0.00755623
0.0065539
0.0058402
0.00513725
0.00444896
0.00377687
0.00311756
0.00246754
0.00183128
0.00127632
0.000968624
0.000976626
0.000622442
0.000525687
0.000597894
0.000680782
0.00295879
0.0122333
0.010511
0.00937286
0.00803313
0.0072043
0.00724454
0.00797702
0.00893654
0.00969466
0.0100813
0.0101853
0.0101537
0.0100939
0.00989381
0.00944971
0.00882523
0.00885394
0.00972257
0.0106426
0.0113148
0.0116221
0.0115373
0.0110469
0.0101009
0.00909258
0.00805212
0.00702586
0.00603224
0.00507586
0.00415365
0.00326338
0.00242774
0.00171453
0.00126076
0.0010927
0.000795496
0.000671246
0.000930197
0.000712569
0.00318134
0.0132774
0.0125419
0.00980479
0.00780579
0.00698078
0.00727412
0.00829115
0.00944995
0.0102974
0.0107266
0.0109819
0.0112819
0.0115567
0.0116842
0.0116987
0.01176
0.0122342
0.0129446
0.0134075
0.0134667
0.0131647
0.0125594
0.0117147
0.0106807
0.00955217
0.00839333
0.00727964
0.00622621
0.00523768
0.0043109
0.00342865
0.00263655
0.00198889
0.00156013
0.00133822
0.00109614
0.00098927
0.00095129
0.00074982
0.00320638
0.0103458
0.00937024
0.00744761
0.0063636
0.00643364
0.00746241
0.00897112
0.0103249
0.0111845
0.0116595
0.0123879
0.0129194
0.0131731
0.0133367
0.0135092
0.013764
0.0141476
0.0144454
0.0144152
0.0139773
0.0132165
0.0122243
0.0110875
0.00988583
0.00869266
0.00754092
0.00645964
0.00546784
0.0045788
0.00379786
0.00312281
0.00256141
0.00212351
0.00179362
0.00168013
0.00162449
0.00164222
0.00217978
0.00111418
0.00310839
0.00358296
0.00378213
0.00385703
0.00467345
0.00634718
0.00843344
0.0103279
0.0114599
0.0121341
0.0127414
0.013342
0.0136499
0.0137847
0.0139076
0.0140675
0.0142283
0.0142936
0.014119
0.0136103
0.0127775
0.0117045
0.0104941
0.00923871
0.00801086
0.00684786
0.00575326
0.00472826
0.00378621
0.00295731
0.00228537
0.0018084
0.00152905
0.00140891
0.00139561
0.00144619
0.00150763
0.00153491
0.00149283
0.00111576
0.000749997
0.00355021
0.00741998
0.0100808
0.0115925
0.0123386
0.0122291
0.0122406
0.0124739
0.0126264
0.0126727
0.0127196
0.0127985
0.0128551
0.012792
0.0125008
0.0119118
0.0110266
0.00992159
0.00871727
0.00752901
0.00643343
0.0054599
0.00460179
0.00384489
0.00318683
0.00263399
0.00219058
0.00185365
0.00161696
0.00147589
0.00142312
0.00144032
0.00149566
0.0015453
0.0015493
0.00147344
0.00108082
0.0021284
0.00961124
0.0109264
0.0111221
0.0107261
0.0102093
0.00976533
0.00946189
0.00923783
0.00908855
0.00903559
0.00905509
0.009091
0.00907076
0.00891788
0.00857171
0.00802042
0.00731376
0.00654552
0.00581192
0.00517218
0.00464036
0.00420224
0.00383474
0.00351665
0.0032307
0.00296294
0.00270419
0.002453
0.00221707
0.00201098
0.00185071
0.00174486
0.00168439
0.00164539
0.00165222
0.00201411
0.00114885
0.0019636
0.00217697
0.00228712
0.00250631
0.00222651
0.00205775
0.0019191
0.00178646
0.00168003
0.00161037
0.00156991
0.00154863
0.00153742
0.00152895
0.00151729
0.00149762
0.00146675
0.00142418
0.00137298
0.00131847
0.0012661
0.00121957
0.00117996
0.00114624
0.00111638
0.00108839
0.00106083
0.00103306
0.00100529
0.000978615
0.000954797
0.000936004
0.000924458
0.00092212
0.000929946
0.000945932
0.000963285
0.000956849
0.000941283
0.000949604
)
;

boundaryField
{
    floor
    {
        type            nutkWallFunction;
        Cmu             0.09;
        kappa           0.41;
        E               9.8;
        value           nonuniform List<scalar> 
29
(
0.000149589
8.31215e-05
9.8847e-05
0.000115519
0.000127251
0.000131649
0.000129409
0.00012104
0.000111982
0.000103873
9.68338e-05
9.07171e-05
8.53743e-05
8.06611e-05
7.64901e-05
7.26758e-05
6.90186e-05
6.5218e-05
6.08523e-05
5.45366e-05
5.45366e-05
5.91599e-05
6.10797e-05
6.27085e-05
0.000149589
8.31215e-05
8.11421e-05
8.42365e-05
0.000176148
)
;
    }
    ceiling
    {
        type            nutkWallFunction;
        Cmu             0.09;
        kappa           0.41;
        E               9.8;
        value           nonuniform List<scalar> 
43
(
0.000229452
0.000252538
0.000264387
0.000287921
0.000258038
0.000239796
0.000224681
0.000210105
0.000198321
0.000190565
0.000186043
0.00018366
0.000182402
0.000181452
0.000180144
0.000177934
0.000174456
0.000169648
0.000163844
0.000157636
0.000151646
0.000146301
0.000141733
0.00013783
0.000134364
0.000131106
0.000127888
0.000124636
0.000121375
0.00011823
0.000115414
0.000113184
0.00011181
0.000111529
0.000112454
0.000114347
0.0001164
0.000115645
0.000113807
0.000114793
0.000351361
0.000400381
0.000246889
)
;
    }
    sWall
    {
        type            nutkWallFunction;
        Cmu             0.09;
        kappa           0.41;
        E               9.8;
        value           uniform 0.000229509;
    }
    nWall
    {
        type            nutkWallFunction;
        Cmu             0.09;
        kappa           0.41;
        E               9.8;
        value           nonuniform List<scalar> 6(8.23469e-05 8.6254e-05 9.0792e-05 0.000130218 0.000138133 0.000114797);
    }
    sideWalls
    {
        type            empty;
    }
    glass1
    {
        type            nutkWallFunction;
        Cmu             0.09;
        kappa           0.41;
        E               9.8;
        value           nonuniform List<scalar> 9(0.000170232 0.000209954 0.000242024 0.000272444 0.000303532 0.000336144 0.000359374 0.000361991 0.000351816);
    }
    glass2
    {
        type            nutkWallFunction;
        Cmu             0.09;
        kappa           0.41;
        E               9.8;
        value           nonuniform List<scalar> 2(0.00013409 0.000134285);
    }
    sun
    {
        type            nutkWallFunction;
        Cmu             0.09;
        kappa           0.41;
        E               9.8;
        value           nonuniform List<scalar> 
14
(
0.000170021
0.000189221
0.000198454
0.000210344
0.000222861
0.000234709
0.000243052
0.000246568
0.000242963
0.000230041
0.000216594
0.000201243
0.000184198
0.000167992
)
;
    }
    heatsource1
    {
        type            nutkWallFunction;
        Cmu             0.09;
        kappa           0.41;
        E               9.8;
        value           nonuniform List<scalar> 3(6.29746e-05 7.20645e-05 8.23497e-05);
    }
    heatsource2
    {
        type            nutkWallFunction;
        Cmu             0.09;
        kappa           0.41;
        E               9.8;
        value           nonuniform List<scalar> 4(0.000170969 0.000146066 0.000146066 0.000163848);
    }
    Table_master
    {
        type            nutkWallFunction;
        Cmu             0.09;
        kappa           0.41;
        E               9.8;
        value           nonuniform List<scalar> 9(0.000160097 0.000138709 0.000121028 0.000106782 9.53757e-05 8.62345e-05 7.88824e-05 7.31877e-05 6.91661e-05);
    }
    Table_slave
    {
        type            nutkWallFunction;
        Cmu             0.09;
        kappa           0.41;
        E               9.8;
        value           nonuniform List<scalar> 9(0.00018069 0.00016433 0.000151243 0.000140404 0.000130682 0.000121459 0.000112342 0.000102991 9.27955e-05);
    }
    inlet
    {
        type            calculated;
        value           uniform 0.000100623;
    }
    outlet
    {
        type            calculated;
        value           nonuniform List<scalar> 2(0.0019636 0.00217697);
    }
}


// ************************************************************************* //
