// -*- C++ -*-
// File generated by PyFoam - sorry for the ugliness

FoamFile
{
 version 2.0;
 format ascii;
 class volScalarField;
 location "200";
 object T;
}

dimensions [ 0 0 0 1 0 0 0 ];

internalField nonuniform List<scalar> 459
(
  302.756
  302.473
  302.428
  302.399
  302.372
  302.345
  302.319
  302.307
  302.327
  302.387
  302.433
  302.475
  302.516
  302.561
  302.622
  303.651
  303.562
  303.488
  303.461
  303.488
  303.521
  303.558
  303.595
  303.631
  303.666
  303.699
  303.732
  303.763
  303.793
  303.822
  303.853
  303.886
  303.928
  303.999
  302.915
  302.511
  302.447
  302.408
  302.371
  302.322
  302.264
  302.233
  302.266
  302.336
  302.401
  302.456
  302.503
  302.549
  302.602
  302.639
  302.706
  303.676
  303.56
  303.375
  303.364
  303.399
  303.447
  303.49
  303.535
  303.579
  303.621
  303.661
  303.699
  303.734
  303.769
  303.802
  303.836
  303.873
  303.922
  303.999
  303.091
  302.578
  302.502
  302.467
  302.425
  302.342
  302.231
  302.174
  302.218
  302.308
  302.399
  302.47
  302.522
  302.565
  302.606
  302.645
  302.699
  303.641
  303.358
  303.263
  303.278
  303.345
  303.42
  303.459
  303.508
  303.559
  303.609
  303.657
  303.702
  303.744
  303.783
  303.818
  303.852
  303.888
  303.932
  304.007
  303.278
  302.669
  302.588
  302.57
  302.532
  302.381
  302.2
  302.12
  302.176
  302.298
  302.423
  302.518
  302.577
  302.616
  302.645
  302.672
  302.705
  302.741
  302.876
  302.955
  303.068
  303.206
  303.345
  303.465
  303.561
  303.636
  303.7
  303.76
  303.816
  303.868
  303.917
  303.963
  304.005
  303.978
  303.959
  303.967
  304.021
  303.468
  302.785
  302.699
  302.704
  302.659
  302.394
  302.155
  302.069
  302.144
  302.311
  302.484
  302.612
  302.683
  302.717
  302.733
  302.746
  302.767
  302.812
  302.896
  303.015
  303.168
  303.333
  303.491
  303.627
  303.741
  303.829
  303.904
  303.964
  304.013
  304.052
  304.082
  304.103
  304.111
  304.08
  304.034
  304.011
  304.039
  304.248
  304.531
  304.486
  303.651
  302.928
  302.846
  302.867
  302.703
  302.362
  302.079
  302.001
  302.126
  302.363
  302.599
  302.767
  302.853
  302.886
  302.888
  302.891
  302.914
  302.983
  303.1
  303.247
  303.414
  303.58
  303.731
  303.856
  303.959
  304.04
  304.101
  304.147
  304.182
  304.207
  304.221
  304.223
  304.21
  304.168
  304.109
  304.066
  304.067
  304.182
  304.292
  304.372
  303.844
  303.129
  303.063
  303.022
  302.668
  302.21
  301.918
  301.912
  302.142
  302.483
  302.794
  303
  303.101
  303.12
  303.112
  303.116
  303.159
  303.26
  303.406
  303.568
  303.731
  303.881
  304.009
  304.112
  304.192
  304.25
  304.289
  304.317
  304.336
  304.346
  304.345
  304.332
  304.304
  304.254
  304.19
  304.136
  304.117
  304.17
  304.232
  304.304
  304.087
  303.573
  303.503
  303.099
  302.399
  301.833
  301.646
  301.837
  302.25
  302.729
  303.102
  303.318
  303.393
  303.398
  303.397
  303.42
  303.487
  303.614
  303.771
  303.931
  304.074
  304.193
  304.288
  304.359
  304.406
  304.436
  304.456
  304.467
  304.472
  304.467
  304.454
  304.431
  304.397
  304.35
  304.285
  304.232
  304.21
  304.245
  304.298
  304.435
  304.443
  304.188
  303.903
  302.503
  301.37
  301.017
  301.312
  301.942
  302.601
  303.208
  303.526
  303.656
  303.695
  303.71
  303.735
  303.786
  303.874
  303.999
  304.14
  304.273
  304.383
  304.466
  304.524
  304.563
  304.586
  304.598
  304.604
  304.602
  304.594
  304.578
  304.555
  304.528
  304.502
  304.482
  304.475
  304.488
  304.526
  304.575
  304.608
  304.683
  291.914
  293.929
  297.247
  299.817
  301.663
  302.925
  303.479
  303.773
  303.912
  303.976
  304.012
  304.047
  304.094
  304.162
  304.252
  304.358
  304.465
  304.559
  304.633
  304.684
  304.716
  304.734
  304.742
  304.743
  304.737
  304.726
  304.708
  304.685
  304.659
  304.633
  304.61
  304.594
  304.589
  304.6
  304.63
  304.68
  304.755
  304.962
  294.454
  298.831
  301.147
  302.548
  303.375
  303.838
  304.059
  304.178
  304.248
  304.296
  304.339
  304.385
  304.439
  304.504
  304.578
  304.655
  304.726
  304.783
  304.825
  304.851
  304.865
  304.87
  304.868
  304.861
  304.849
  304.832
  304.812
  304.788
  304.763
  304.737
  304.713
  304.693
  304.681
  304.679
  304.692
  304.736
  304.828
  304.937
  302.827
  301.502
  301.322
  303.015
  303.817
  304.145
  304.326
  304.444
  304.522
  304.579
  304.625
  304.666
  304.705
  304.744
  304.785
  304.827
  304.868
  304.904
  304.934
  304.955
  304.967
  304.971
  304.97
  304.965
  304.957
  304.947
  304.934
  304.92
  304.904
  304.886
  304.866
  304.846
  304.825
  304.806
  304.788
  304.778
  304.785
  304.83
  304.903
  305.028
)
;

boundaryField
{
  floor
  {
    type wallHeatTransfer;
    Tinf uniform 305.2;
    alphaWall uniform 0.24;
    value nonuniform List<scalar> 29
(
  302.866
  303.879
  303.775
  303.686
  303.648
  303.668
  303.7
  303.742
  303.786
  303.828
  303.869
  303.907
  303.944
  303.979
  304.012
  304.045
  304.078
  304.113
  304.158
  304.231
  304.231
  304.221
  304.223
  304.231
  302.866
  303.879
  303.905
  303.868
  302.944
)
;
  }
  ceiling
  {
    type wallHeatTransfer;
    Tinf uniform 303.2;
    alphaWall uniform 0.24;
    value nonuniform List<scalar> 43
(
  302.851
  301.604
  301.432
  303.025
  303.78
  304.085
  304.25
  304.355
  304.423
  304.472
  304.512
  304.548
  304.584
  304.619
  304.656
  304.693
  304.728
  304.759
  304.781
  304.795
  304.801
  304.8
  304.795
  304.787
  304.776
  304.763
  304.748
  304.732
  304.713
  304.694
  304.673
  304.652
  304.632
  304.614
  304.6
  304.593
  304.602
  304.641
  304.704
  304.815
  304.387
  304.149
  294.983
)
;
  }
  sWall
  {
    type wallHeatTransfer;
    Tinf uniform 315.2;
    alphaWall uniform 0.36;
    value uniform 304.016;
  }
  nWall
  {
    type wallHeatTransfer;
    Tinf uniform 307.2;
    alphaWall uniform 0.36;
    value nonuniform List<scalar> 6
(
  305.049
  304.941
  304.868
  305.3
  305.265
  305.388
)
;
  }
  sideWalls
  {
    type empty;
  }
  glass1
  {
    type wallHeatTransfer;
    Tinf uniform 315.2;
    alphaWall uniform 4.3;
    value nonuniform List<scalar> 9
(
  310.593
  310.09
  309.772
  309.527
  309.319
  309.131
  309.053
  309.166
  309.435
)
;
  }
  glass2
  {
    type wallHeatTransfer;
    Tinf uniform 307.2;
    alphaWall uniform 4.3;
    value nonuniform List<scalar> 2
(
  306.301
  306.381
)
;
  }
  sun
  {
    type wallHeatTransfer;
    Tinf uniform 305.2;
    alphaWall uniform 0.24;
    value nonuniform List<scalar> 14
(
  302.964
  302.685
  302.635
  302.598
  302.563
  302.53
  302.5
  302.486
  302.508
  302.572
  302.625
  302.676
  302.73
  302.788
)
;
  }
  heatsource1
  {
    type fixedGradient;
    gradient uniform 0;
  }
  heatsource2
  {
    type fixedGradient;
    gradient uniform 0;
  }
  Table_master
  {
    type zeroGradient;
  }
  Table_slave
  {
    type zeroGradient;
  }
  inlet
  {
    type fixedValue;
    value uniform 290.15;
  }
  outlet
  {
    type zeroGradient;
  }
} 	// ************************************************************************* //

