/*--------------------------------*- C++ -*----------------------------------*\
  =========                 |
  \\      /  F ield         | OpenFOAM: The Open Source CFD Toolbox
   \\    /   O peration     | Website:  https://openfoam.org
    \\  /    A nd           | Version:  6
     \\/     M anipulation  |
\*---------------------------------------------------------------------------*/
FoamFile
{
    version     2.0;
    format      ascii;
    class       volScalarField;
    location    "1200";
    object      nut;
}
// * * * * * * * * * * * * * * * * * * * * * * * * * * * * * * * * * * * * * //

dimensions      [0 2 -1 0 0 0 0];

internalField   nonuniform List<scalar> 
459
(
0.00116309
0.00127612
0.00130409
0.0013696
0.00143145
0.00149092
0.00155162
0.00160262
0.00163398
0.00163959
0.00161486
0.00155632
0.00146028
0.00132369
0.00116111
0.000531727
0.000635895
0.000722974
0.000736016
0.000717886
0.00068861
0.000645883
0.000602173
0.000562439
0.000527305
0.000496337
0.000468962
0.000444629
0.000422919
0.000403024
0.000383973
0.000364435
0.000350816
0.000320389
0.00157215
0.00397261
0.0038591
0.00450574
0.00514957
0.00577165
0.00626521
0.00667897
0.00703755
0.00731016
0.00746686
0.00747894
0.00730526
0.00684645
0.00565146
0.00123667
0.000820024
0.000549302
0.00121765
0.00174969
0.00215823
0.00239492
0.00238943
0.00184091
0.00156391
0.00137211
0.0012277
0.00111455
0.00102341
0.000947442
0.000876427
0.000806409
0.000743103
0.000688285
0.000809606
0.000414636
0.00190809
0.00541825
0.00481914
0.00594832
0.00652258
0.00695374
0.00728539
0.00759786
0.00792914
0.0082568
0.00854245
0.00874288
0.00880216
0.00862259
0.00795776
0.00595609
0.00131033
0.00101067
0.00156027
0.00211651
0.00265609
0.00304089
0.00296217
0.000912585
0.000801596
0.000712298
0.000640411
0.000582061
0.000534209
0.000494647
0.000462076
0.000436049
0.000473544
0.000551689
0.000923929
0.000480604
0.00222671
0.00684504
0.00488056
0.00626435
0.00670272
0.00687778
0.00702915
0.00725257
0.00756153
0.00792964
0.00830704
0.00863445
0.00883668
0.0088538
0.00863778
0.00781505
0.00489022
0.00152925
0.00190316
0.00252981
0.00321829
0.00381451
0.00419271
0.00391779
0.00102977
0.000934648
0.000865801
0.000812228
0.000765862
0.000724431
0.000684391
0.00064254
0.000594531
0.000555487
0.000575444
0.00108384
0.000530461
0.00254961
0.00865574
0.00537914
0.00613089
0.00664238
0.00668641
0.00670206
0.00688319
0.00717787
0.00757231
0.00799701
0.00836104
0.00857792
0.00861602
0.00849459
0.00817534
0.00743004
0.00630889
0.00596989
0.00594621
0.00601621
0.00606447
0.00602172
0.00574704
0.00475219
0.0042638
0.00397135
0.00374486
0.00351508
0.00319306
0.00279174
0.00232766
0.00182855
0.001345
0.000997236
0.00106448
0.000696795
0.000641749
0.000767236
0.000860277
0.00289109
0.0106334
0.0073122
0.00633444
0.00671394
0.00671093
0.00671707
0.00681381
0.00704795
0.00743463
0.00789452
0.00829176
0.00850335
0.00848691
0.00830661
0.008087
0.0079137
0.00779662
0.0077854
0.00775272
0.00763141
0.00742473
0.00714602
0.00678228
0.00627969
0.00584447
0.00547549
0.00513731
0.00480337
0.00443388
0.00398651
0.00345044
0.00283207
0.00217702
0.00162372
0.00122444
0.000946972
0.000830182
0.00119551
0.000903649
0.00319344
0.0119726
0.0100211
0.00812215
0.00770733
0.00730946
0.00699551
0.00691978
0.00712223
0.00755472
0.00807868
0.00850887
0.00869548
0.00860064
0.00833923
0.00814247
0.00819921
0.00843403
0.00858781
0.00851958
0.00824904
0.00785056
0.00737974
0.0068668
0.00633818
0.00586215
0.00544358
0.00506733
0.00472751
0.00442676
0.00415722
0.00377371
0.00327094
0.00268836
0.00215538
0.00168948
0.00137522
0.00131408
0.00137291
0.00105003
0.00324502
0.0103816
0.00942004
0.00859145
0.00780911
0.00714416
0.00681661
0.00689333
0.00732459
0.00796713
0.00860784
0.00902925
0.00910267
0.00885148
0.00849392
0.00835751
0.00856625
0.00881104
0.00875667
0.00843065
0.00791423
0.0072892
0.00662333
0.00597933
0.00541175
0.00494438
0.00456221
0.00424969
0.00400414
0.00383065
0.00373271
0.00366305
0.00337842
0.00300219
0.00269116
0.00256368
0.00274171
0.00331993
0.00413761
0.00160692
0.00315406
0.00371449
0.00406663
0.00417218
0.00443611
0.00500553
0.00587112
0.00694852
0.00807718
0.00904967
0.00965939
0.00977764
0.00945012
0.00890111
0.00861017
0.00853434
0.00851931
0.00835386
0.00795192
0.00734789
0.00661371
0.00584166
0.00512153
0.00451831
0.00404921
0.00369091
0.00340981
0.00318208
0.00299251
0.00282938
0.00268292
0.0025571
0.00246141
0.00239944
0.00238814
0.00241318
0.00240258
0.00229442
0.00212831
0.00147667
0.00140195
0.00375306
0.00693903
0.00897363
0.0102742
0.0110279
0.0112822
0.011118
0.0106453
0.00989561
0.00903189
0.00834776
0.00798716
0.00773525
0.00737986
0.00686457
0.00621255
0.00548631
0.0047617
0.00410889
0.00358393
0.00319861
0.00292491
0.00272793
0.00258241
0.00247411
0.00239622
0.00234694
0.00232918
0.00233685
0.00235948
0.00239281
0.00242438
0.0024221
0.00233908
0.00216093
0.00189804
0.00118854
0.00220611
0.00717675
0.00962183
0.0102339
0.0103415
0.0100836
0.00951505
0.00878344
0.00802317
0.00730839
0.00670727
0.00626465
0.00589609
0.00547777
0.00499009
0.00446145
0.00392971
0.00343964
0.00302764
0.0027083
0.00247002
0.00230544
0.00219858
0.00213572
0.00210788
0.00210839
0.00213034
0.00217212
0.00223602
0.00231779
0.00241344
0.00251475
0.00260414
0.00266693
0.00265242
0.0026489
0.0023888
0.00120341
0.00197253
0.00209254
0.00217938
0.00234755
0.00223908
0.00214702
0.00206647
0.00195282
0.00180413
0.00162974
0.00144152
0.00126199
0.00111187
0.000996605
0.000910431
0.000844882
0.000793487
0.000752681
0.00072141
0.000699744
0.000687513
0.000683987
0.000688302
0.000698343
0.000713269
0.000732728
0.00075669
0.000785454
0.000819757
0.000860078
0.000906228
0.000958633
0.00101774
0.00108404
0.00115741
0.00125553
0.00128184
0.00124901
0.00116472
0.00107379
)
;

boundaryField
{
    floor
    {
        type            nutkWallFunction;
        Cmu             0.09;
        kappa           0.41;
        E               9.8;
        value           nonuniform List<scalar> 
29
(
0.000139499
6.37579e-05
7.68207e-05
8.7541e-05
8.91332e-05
8.69196e-05
8.33306e-05
7.80594e-05
7.26232e-05
6.76397e-05
6.31971e-05
5.92509e-05
5.5737e-05
5.25922e-05
4.97678e-05
4.71634e-05
4.46542e-05
4.20642e-05
4.0248e-05
3.61569e-05
3.61568e-05
4.8684e-05
5.72327e-05
6.35955e-05
0.000139499
6.37579e-05
6.59817e-05
0.00012197
0.000181398
)
;
    }
    ceiling
    {
        type            nutkWallFunction;
        Cmu             0.09;
        kappa           0.41;
        E               9.8;
        value           nonuniform List<scalar> 
43
(
0.000230217
0.000243247
0.000252629
0.000270831
0.000259242
0.000249333
0.000240619
0.000228251
0.000211948
0.000192636
0.000171533
0.000151119
0.000133798
0.000120318
0.000110124
0.000102295
9.61069e-05
9.116e-05
8.73476e-05
8.46946e-05
8.31927e-05
8.27591e-05
8.32898e-05
8.45229e-05
8.63521e-05
8.87299e-05
9.16478e-05
9.51359e-05
9.92761e-05
0.000104117
0.000109625
0.00011584
0.000122804
0.000130561
0.000139081
0.000150382
0.000153396
0.000149635
0.000139928
0.000129366
0.000356113
0.000413844
0.000255291
)
;
    }
    sWall
    {
        type            nutkWallFunction;
        Cmu             0.09;
        kappa           0.41;
        E               9.8;
        value           uniform 0.000230282;
    }
    nWall
    {
        type            nutkWallFunction;
        Cmu             0.09;
        kappa           0.41;
        E               9.8;
        value           nonuniform List<scalar> 6(0.000104143 0.000109321 0.000126594 0.00014269 0.000144404 0.000129374);
    }
    sideWalls
    {
        type            empty;
    }
    glass1
    {
        type            nutkWallFunction;
        Cmu             0.09;
        kappa           0.41;
        E               9.8;
        value           nonuniform List<scalar> 9(0.000139874 0.000186467 0.000223711 0.000258378 0.000292973 0.000329061 0.000360645 0.000366013 0.00035658);
    }
    glass2
    {
        type            nutkWallFunction;
        Cmu             0.09;
        kappa           0.41;
        E               9.8;
        value           nonuniform List<scalar> 2(0.000190192 0.000175585);
    }
    sun
    {
        type            nutkWallFunction;
        Cmu             0.09;
        kappa           0.41;
        E               9.8;
        value           nonuniform List<scalar> 
14
(
0.000139738
0.000152733
0.00015593
0.000163388
0.000170391
0.000177095
0.000183907
0.000189607
0.000193103
0.000193726
0.000190971
0.000184431
0.000173642
0.000158163
)
;
    }
    heatsource1
    {
        type            nutkWallFunction;
        Cmu             0.09;
        kappa           0.41;
        E               9.8;
        value           nonuniform List<scalar> 3(7.7547e-05 9.29289e-05 0.00010414);
    }
    heatsource2
    {
        type            nutkWallFunction;
        Cmu             0.09;
        kappa           0.41;
        E               9.8;
        value           nonuniform List<scalar> 4(0.000148204 9.93098e-05 9.93099e-05 0.000156634);
    }
    Table_master
    {
        type            nutkWallFunction;
        Cmu             0.09;
        kappa           0.41;
        E               9.8;
        value           nonuniform List<scalar> 9(0.00011038 9.7088e-05 8.62368e-05 7.73839e-05 7.01099e-05 6.40784e-05 5.90417e-05 5.48575e-05 5.14875e-05);
    }
    Table_slave
    {
        type            nutkWallFunction;
        Cmu             0.09;
        kappa           0.41;
        E               9.8;
        value           nonuniform List<scalar> 9(0.000124213 0.000112999 0.000104802 9.83701e-05 9.27636e-05 8.77197e-05 8.28125e-05 7.76466e-05 7.16702e-05);
    }
    inlet
    {
        type            calculated;
        value           uniform 0.000100623;
    }
    outlet
    {
        type            calculated;
        value           nonuniform List<scalar> 2(0.00197253 0.00209254);
    }
}


// ************************************************************************* //
