// -*- C++ -*-
// File generated by PyFoam - sorry for the ugliness

FoamFile
{
 version 2.0;
 format ascii;
 class volScalarField;
 location "1200";
 object T;
}

dimensions [ 0 0 0 1 0 0 0 ];

internalField nonuniform List<scalar> 459
(
  302.561
  302.28
  302.265
  302.261
  302.256
  302.252
  302.247
  302.24
  302.23
  302.22
  302.211
  302.206
  302.206
  302.214
  302.234
  302.386
  302.358
  302.347
  302.353
  302.36
  302.368
  302.375
  302.382
  302.389
  302.396
  302.402
  302.409
  302.416
  302.423
  302.43
  302.437
  302.446
  302.456
  302.485
  302.746
  302.321
  302.293
  302.293
  302.294
  302.292
  302.288
  302.276
  302.256
  302.232
  302.209
  302.194
  302.189
  302.192
  302.199
  302.2
  302.202
  302.391
  302.334
  302.326
  302.333
  302.343
  302.353
  302.358
  302.362
  302.365
  302.369
  302.373
  302.376
  302.38
  302.384
  302.389
  302.397
  302.407
  302.423
  302.467
  302.94
  302.374
  302.328
  302.336
  302.348
  302.355
  302.355
  302.338
  302.303
  302.258
  302.218
  302.191
  302.18
  302.183
  302.191
  302.197
  302.2
  302.315
  302.306
  302.314
  302.332
  302.351
  302.366
  302.367
  302.368
  302.37
  302.371
  302.373
  302.376
  302.378
  302.381
  302.384
  302.39
  302.398
  302.413
  302.461
  303.137
  302.442
  302.369
  302.384
  302.411
  302.435
  302.445
  302.42
  302.36
  302.288
  302.226
  302.186
  302.172
  302.176
  302.189
  302.202
  302.21
  302.227
  302.251
  302.284
  302.319
  302.353
  302.383
  302.407
  302.426
  302.443
  302.457
  302.47
  302.48
  302.489
  302.496
  302.502
  302.506
  302.469
  302.439
  302.427
  302.464
  303.33
  302.53
  302.419
  302.431
  302.475
  302.521
  302.541
  302.498
  302.406
  302.305
  302.225
  302.177
  302.161
  302.171
  302.193
  302.217
  302.24
  302.266
  302.298
  302.336
  302.376
  302.413
  302.446
  302.473
  302.497
  302.517
  302.533
  302.546
  302.554
  302.558
  302.558
  302.554
  302.544
  302.517
  302.477
  302.448
  302.464
  302.577
  302.628
  302.633
  303.506
  302.644
  302.506
  302.5
  302.552
  302.618
  302.612
  302.534
  302.417
  302.298
  302.206
  302.155
  302.146
  302.167
  302.206
  302.247
  302.285
  302.324
  302.365
  302.408
  302.45
  302.488
  302.52
  302.546
  302.568
  302.585
  302.599
  302.608
  302.613
  302.611
  302.605
  302.594
  302.578
  302.551
  302.512
  302.475
  302.47
  302.518
  302.541
  302.585
  303.671
  302.826
  302.693
  302.678
  302.712
  302.724
  302.65
  302.517
  302.365
  302.233
  302.146
  302.112
  302.125
  302.173
  302.237
  302.3
  302.357
  302.407
  302.453
  302.497
  302.536
  302.569
  302.596
  302.618
  302.634
  302.647
  302.656
  302.661
  302.661
  302.656
  302.643
  302.628
  302.608
  302.582
  302.547
  302.51
  302.493
  302.507
  302.523
  302.558
  303.907
  303.28
  303.135
  303.068
  302.975
  302.806
  302.59
  302.372
  302.193
  302.078
  302.036
  302.055
  302.117
  302.207
  302.306
  302.392
  302.459
  302.512
  302.553
  302.589
  302.62
  302.645
  302.665
  302.679
  302.69
  302.696
  302.7
  302.699
  302.696
  302.688
  302.677
  302.659
  302.641
  302.617
  302.591
  302.564
  302.555
  302.577
  302.604
  302.755
  304.248
  303.949
  303.658
  303.332
  302.862
  302.413
  302.075
  301.869
  301.79
  301.814
  301.91
  302.038
  302.174
  302.312
  302.443
  302.523
  302.576
  302.614
  302.644
  302.67
  302.691
  302.708
  302.719
  302.727
  302.731
  302.732
  302.731
  302.728
  302.723
  302.718
  302.714
  302.712
  302.713
  302.72
  302.737
  302.766
  302.808
  302.849
  302.875
  302.939
  293.237
  294.868
  297.063
  298.658
  299.786
  300.613
  301.234
  301.699
  302.053
  302.275
  302.416
  302.518
  302.589
  302.638
  302.672
  302.698
  302.719
  302.734
  302.746
  302.755
  302.76
  302.762
  302.763
  302.762
  302.761
  302.76
  302.758
  302.758
  302.758
  302.759
  302.764
  302.773
  302.79
  302.815
  302.845
  302.876
  302.9
  302.927
  294.49
  296.988
  299.228
  300.375
  301.091
  301.58
  301.924
  302.184
  302.377
  302.508
  302.595
  302.655
  302.697
  302.725
  302.746
  302.761
  302.772
  302.78
  302.785
  302.787
  302.789
  302.789
  302.788
  302.788
  302.787
  302.786
  302.785
  302.785
  302.785
  302.787
  302.79
  302.797
  302.808
  302.825
  302.846
  302.871
  302.872
  302.907
  298.372
  298.296
  298.29
  300.625
  301.535
  301.917
  302.15
  302.326
  302.462
  302.567
  302.647
  302.705
  302.744
  302.772
  302.791
  302.804
  302.813
  302.819
  302.823
  302.825
  302.826
  302.825
  302.824
  302.822
  302.82
  302.818
  302.816
  302.814
  302.812
  302.81
  302.809
  302.809
  302.809
  302.811
  302.815
  302.828
  302.839
  302.848
  302.854
  302.895
)
;

boundaryField
{
  floor
  {
    type wallHeatTransfer;
    Tinf uniform 305.2;
    alphaWall uniform 0.24;
    value nonuniform List<scalar> 29
(
  302.529
  302.879
  302.798
  302.751
  302.751
  302.764
  302.783
  302.808
  302.836
  302.863
  302.89
  302.916
  302.941
  302.965
  302.989
  303.012
  303.036
  303.062
  303.085
  303.142
  303.142
  303.031
  302.975
  302.945
  302.529
  302.879
  302.872
  302.634
  302.466
)
;
  }
  ceiling
  {
    type wallHeatTransfer;
    Tinf uniform 303.2;
    alphaWall uniform 0.24;
    value nonuniform List<scalar> 43
(
  298.686
  298.6
  298.585
  300.771
  301.633
  301.996
  302.217
  302.384
  302.514
  302.616
  302.694
  302.751
  302.791
  302.82
  302.84
  302.854
  302.865
  302.872
  302.877
  302.879
  302.88
  302.88
  302.879
  302.877
  302.874
  302.872
  302.869
  302.866
  302.862
  302.859
  302.856
  302.854
  302.852
  302.852
  302.854
  302.863
  302.873
  302.882
  302.888
  302.927
  304.201
  303.92
  295.002
)
;
  }
  sWall
  {
    type wallHeatTransfer;
    Tinf uniform 315.2;
    alphaWall uniform 0.36;
    value uniform 299.967;
  }
  nWall
  {
    type wallHeatTransfer;
    Tinf uniform 307.2;
    alphaWall uniform 0.36;
    value nonuniform List<scalar> 6
(
  303.439
  303.372
  303.27
  303.526
  303.504
  303.545
)
;
  }
  sideWalls
  {
    type empty;
  }
  glass1
  {
    type wallHeatTransfer;
    Tinf uniform 315.2;
    alphaWall uniform 4.3;
    value nonuniform List<scalar> 9
(
  311.026
  310.346
  309.924
  309.609
  309.348
  309.113
  308.949
  309.038
  309.294
)
;
  }
  glass2
  {
    type wallHeatTransfer;
    Tinf uniform 307.2;
    alphaWall uniform 4.3;
    value nonuniform List<scalar> 2
(
  305.433
  305.58
)
;
  }
  sun
  {
    type wallHeatTransfer;
    Tinf uniform 305.2;
    alphaWall uniform 0.24;
    value nonuniform List<scalar> 14
(
  302.824
  302.551
  302.533
  302.519
  302.506
  302.494
  302.482
  302.469
  302.457
  302.447
  302.441
  302.444
  302.456
  302.483
)
;
  }
  heatsource1
  {
    type fixedGradient;
    gradient uniform 0;
  }
  heatsource2
  {
    type fixedGradient;
    gradient uniform 0;
  }
  Table_master
  {
    type zeroGradient;
  }
  Table_slave
  {
    type zeroGradient;
  }
  inlet
  {
    type fixedValue;
    value uniform 290.15;
  }
  outlet
  {
    type zeroGradient;
  }
} 	// ************************************************************************* //

