/*--------------------------------*- C++ -*----------------------------------*\
  =========                 |
  \\      /  F ield         | OpenFOAM: The Open Source CFD Toolbox
   \\    /   O peration     | Website:  https://openfoam.org
    \\  /    A nd           | Version:  6
     \\/     M anipulation  |
\*---------------------------------------------------------------------------*/
FoamFile
{
    version     2.0;
    format      ascii;
    class       volScalarField;
    location    "2800";
    object      alphat;
}
// * * * * * * * * * * * * * * * * * * * * * * * * * * * * * * * * * * * * * //

dimensions      [1 -1 -1 0 0 0 0];

internalField   nonuniform List<scalar> 
459
(
0.00132497
0.00145264
0.00148101
0.00155424
0.0016229
0.00168804
0.00175308
0.00181252
0.00185223
0.00186541
0.00184625
0.00179116
0.00169905
0.00157524
0.00143516
0.000595176
0.000717741
0.000807042
0.000804786
0.000777195
0.000740381
0.000693548
0.000647115
0.00060509
0.000567887
0.000535032
0.000505917
0.00048005
0.000456896
0.00043563
0.000415225
0.000394299
0.000381996
0.000350754
0.00180193
0.00452536
0.00437945
0.00511364
0.00583725
0.00654912
0.0071507
0.00762424
0.00804105
0.00836791
0.00856265
0.00858189
0.00835968
0.00772614
0.00598896
0.0014746
0.000857353
0.000632023
0.0013261
0.00184879
0.00223156
0.00243696
0.00242655
0.00193104
0.00165946
0.00146686
0.00131982
0.00120332
0.00110867
0.00102776
0.000952253
0.000878655
0.00081284
0.000753903
0.000901043
0.000467857
0.00219464
0.00618483
0.0054692
0.0068447
0.00754326
0.00806355
0.00846608
0.00880751
0.00916767
0.00952997
0.00984708
0.0100652
0.0101222
0.00991152
0.00913325
0.00691317
0.00151168
0.00122159
0.00178377
0.00230756
0.00278776
0.00311674
0.00303149
0.00098771
0.000870142
0.000775751
0.000699711
0.000637888
0.000587087
0.000545008
0.000510191
0.000482029
0.000519927
0.000600788
0.00102399
0.000548265
0.00256793
0.00786008
0.00552933
0.00725126
0.00785458
0.00808005
0.00824576
0.00845608
0.00876809
0.00916112
0.00957241
0.00993587
0.0101793
0.0102127
0.00997039
0.00910107
0.00619686
0.00178162
0.0022116
0.00286621
0.00351568
0.00403638
0.00434976
0.00406262
0.00111162
0.00100904
0.000935216
0.000878419
0.000829794
0.000785919
0.000743745
0.000699727
0.000649145
0.000609822
0.000631179
0.00121089
0.000607181
0.00294611
0.00998487
0.00611601
0.00704513
0.00780086
0.00787759
0.00785222
0.00800871
0.00829504
0.0087135
0.00918162
0.00961006
0.00989341
0.00996894
0.00982985
0.00943697
0.00856316
0.00710529
0.00659673
0.00643545
0.00638297
0.00634001
0.00624879
0.00596888
0.00498648
0.0045089
0.00422574
0.00400528
0.00377718
0.00345321
0.00303606
0.00254532
0.00201269
0.0014895
0.00110425
0.00117222
0.000797941
0.000745425
0.000889446
0.000995934
0.00334517
0.0122873
0.00836163
0.0071829
0.00773329
0.00785916
0.00780437
0.00790411
0.00812969
0.00851689
0.00901673
0.00949542
0.00980321
0.00984901
0.00964566
0.00929453
0.00890701
0.00854427
0.00833982
0.00816598
0.00794909
0.00769226
0.00740156
0.00704953
0.00656358
0.00613885
0.00577093
0.00542755
0.00508727
0.00472122
0.00427319
0.0037278
0.00308924
0.00239934
0.00180444
0.00133884
0.001069
0.00094785
0.0013681
0.00104466
0.00369889
0.0138447
0.0114965
0.00922667
0.00884124
0.00851432
0.00817607
0.00804377
0.00819142
0.00860619
0.00917549
0.00970945
0.0100178
0.0099969
0.00968562
0.00927247
0.00900181
0.00895787
0.00896561
0.00882579
0.0085153
0.00809681
0.00761642
0.00709758
0.00656705
0.0060909
0.00566992
0.00529004
0.00494815
0.0046497
0.00439326
0.00402885
0.00353002
0.00293282
0.00238424
0.00188151
0.00156258
0.00148164
0.00150905
0.00119088
0.00375709
0.012058
0.0109004
0.0100764
0.00928557
0.0085014
0.00802445
0.0079767
0.00834009
0.00899271
0.00972707
0.0102973
0.0105119
0.0103125
0.00981556
0.00931795
0.00911613
0.00916356
0.00906487
0.00869094
0.00812427
0.00745654
0.00676379
0.00611556
0.00556143
0.00511207
0.00474601
0.00444857
0.00421871
0.00406142
0.00398023
0.00393609
0.00369555
0.00331665
0.00300719
0.002886
0.00305617
0.00357106
0.00458403
0.00180151
0.00364671
0.00430335
0.00474316
0.0048558
0.00511405
0.00568071
0.00657145
0.00772176
0.00897831
0.0101312
0.0109593
0.0112813
0.0110558
0.0104194
0.00968914
0.00924587
0.00898428
0.00870237
0.00822193
0.00752985
0.00672383
0.00591789
0.0052068
0.00463792
0.00420558
0.00387531
0.00361416
0.00340188
0.00322586
0.00307603
0.00294409
0.0028295
0.00274433
0.0026919
0.00269044
0.0027269
0.00272674
0.00262423
0.00243926
0.00167144
0.00173023
0.00438414
0.00792042
0.0102076
0.0117098
0.0126239
0.0129992
0.0129155
0.0124624
0.0117364
0.0107158
0.00968016
0.00889059
0.00835367
0.00782993
0.00718179
0.00641985
0.00562753
0.00488672
0.00425934
0.00378008
0.00343374
0.00318385
0.00299908
0.00285993
0.00275601
0.00268269
0.00263929
0.00262864
0.00264904
0.00268953
0.00274834
0.00281956
0.00288155
0.00290605
0.00289504
0.00256616
0.00138119
0.00261512
0.00805583
0.0110383
0.0118053
0.0120312
0.011846
0.011282
0.0104774
0.00956595
0.00867298
0.00783214
0.00712954
0.00655605
0.0059942
0.00538754
0.00477576
0.00421039
0.0037269
0.00333782
0.00303729
0.00280843
0.00264383
0.00252998
0.00245773
0.00242173
0.0024173
0.00243838
0.00248083
0.00255126
0.00264452
0.00275679
0.00288126
0.00300328
0.0031065
0.00319094
0.00320422
0.00221391
0.00142613
0.00231359
0.00245489
0.00255631
0.00273659
0.00262177
0.00251899
0.00243493
0.00231413
0.0021518
0.00195749
0.00174149
0.00152255
0.00132694
0.00117036
0.001053
0.000966834
0.00090324
0.000856124
0.000822078
0.000799328
0.000786613
0.00078289
0.000786831
0.000796648
0.00081186
0.000832282
0.000857982
0.000889314
0.000927087
0.000972198
0.00102417
0.00108357
0.00115081
0.0012263
0.00130974
0.00140561
0.0014317
0.00130419
0.00121518
0.00137807
)
;

boundaryField
{
    floor
    {
        type            compressible::alphatWallFunction;
        Prt             0.85;
        value           nonuniform List<scalar> 
29
(
0.000202204
8.36189e-05
0.000101768
0.000114753
0.000114428
0.000110434
0.000105078
9.82178e-05
9.13607e-05
8.51027e-05
7.95181e-05
7.45485e-05
7.01128e-05
6.61452e-05
6.25709e-05
5.92678e-05
5.6079e-05
5.2788e-05
5.08428e-05
4.58664e-05
4.58658e-05
6.42665e-05
7.65556e-05
8.54169e-05
0.000202202
8.36179e-05
8.91188e-05
0.00017309
0.000248444
)
;
    }
    ceiling
    {
        type            compressible::alphatWallFunction;
        Prt             0.85;
        value           nonuniform List<scalar> 
43
(
0.000317457
0.000335515
0.000348412
0.000371361
0.000356922
0.000343912
0.000333225
0.000317785
0.000296895
0.00027166
0.00024328
0.000214114
0.000187657
0.000166162
0.000149835
0.000137713
0.000128686
0.00012195
0.000117055
0.000113771
0.00011193
0.000111391
0.000111962
0.000113383
0.000115581
0.000118525
0.000122217
0.0001267
0.00013208
0.000138473
0.000145794
0.00015411
0.000163459
0.000173882
0.000185317
0.000198355
0.000201886
0.00018456
0.000172356
0.000194632
0.00048451
0.000564114
0.000355623
)
;
    }
    sWall
    {
        type            compressible::alphatWallFunction;
        Prt             0.85;
        value           uniform 0.000316185;
    }
    nWall
    {
        type            compressible::alphatWallFunction;
        Prt             0.85;
        value           nonuniform List<scalar> 6(0.000141473 0.000148312 0.000168634 0.0001947 0.000200784 0.000194283);
    }
    sideWalls
    {
        type            empty;
    }
    glass1
    {
        type            compressible::alphatWallFunction;
        Prt             0.85;
        value           nonuniform List<scalar> 9(0.00018251 0.000245503 0.000296129 0.000343448 0.000390718 0.000439966 0.000483163 0.000490377 0.000477222);
    }
    glass2
    {
        type            compressible::alphatWallFunction;
        Prt             0.85;
        value           nonuniform List<scalar> 2(0.000249147 0.000232108);
    }
    sun
    {
        type            compressible::alphatWallFunction;
        Prt             0.85;
        value           nonuniform List<scalar> 
14
(
0.000187269
0.00020457
0.000208393
0.000218227
0.0002274
0.000236064
0.000244677
0.000252518
0.000257741
0.000259471
0.000256954
0.000249702
0.000237521
0.000221033
)
;
    }
    heatsource1
    {
        type            compressible::alphatWallFunction;
        Prt             0.85;
        value           nonuniform List<scalar> 3(0.000105967 0.000126744 0.000141847);
    }
    heatsource2
    {
        type            compressible::alphatWallFunction;
        Prt             0.85;
        value           nonuniform List<scalar> 4(0.000207702 0.000122151 0.00012215 0.000212688);
    }
    Table_master
    {
        type            compressible::alphatWallFunction;
        Prt             0.85;
        value           nonuniform List<scalar> 9(0.000140685 0.000123981 0.000110376 9.92725e-05 9.01369e-05 8.25488e-05 7.6202e-05 7.09044e-05 6.65861e-05);
    }
    Table_slave
    {
        type            compressible::alphatWallFunction;
        Prt             0.85;
        value           nonuniform List<scalar> 9(0.000158043 0.000143693 0.00013326 0.000125168 0.000118191 0.000111853 0.000105722 9.92772e-05 9.18103e-05);
    }
    inlet
    {
        type            fixedValue;
        value           uniform 1.94e-05;
    }
    outlet
    {
        type            zeroGradient;
    }
}


// ************************************************************************* //
