/*--------------------------------*- C++ -*----------------------------------*\
  =========                 |
  \\      /  F ield         | OpenFOAM: The Open Source CFD Toolbox
   \\    /   O peration     | Website:  https://openfoam.org
    \\  /    A nd           | Version:  6
     \\/     M anipulation  |
\*---------------------------------------------------------------------------*/
FoamFile
{
    version     2.0;
    format      ascii;
    class       volScalarField;
    location    "2500";
    object      epsilon;
}
// * * * * * * * * * * * * * * * * * * * * * * * * * * * * * * * * * * * * * //

dimensions      [0 2 -3 0 0 0 0];

internalField   nonuniform List<scalar> 
459
(
0.000522936
0.000687322
0.00072842
0.000841957
0.000958626
0.00107889
0.00120865
0.00133584
0.00142554
0.00145609
0.00141152
0.0012887
0.00109955
0.000875539
0.000660874
4.83619e-05
8.52161e-05
0.000121441
0.00012081
0.000109284
9.48738e-05
7.82918e-05
6.38192e-05
5.23379e-05
4.33845e-05
3.63688e-05
3.08125e-05
2.63764e-05
2.2778e-05
1.97686e-05
1.71343e-05
1.46743e-05
1.32615e-05
1.02006e-05
0.0013173
0.00186082
0.000650915
0.000633441
0.000669547
0.000727132
0.000809809
0.00091041
0.000998699
0.00104691
0.0010361
0.000963019
0.000837509
0.000687171
0.000572335
0.000717307
0.000143134
5.78502e-05
0.000137113
0.000146518
0.00013399
0.000114439
9.60192e-05
8.66824e-05
7.0151e-05
5.55502e-05
4.4e-05
3.5104e-05
2.8281e-05
2.30487e-05
1.90414e-05
1.60869e-05
1.42865e-05
1.35371e-05
3.5044e-05
2.37587e-05
0.00238412
0.00448818
0.000816308
0.000614077
0.000651949
0.000743856
0.000875181
0.0010271
0.00115334
0.00121966
0.00121172
0.00113432
0.000999657
0.000841035
0.000696543
0.000629708
0.000777115
0.000417625
0.000306405
0.000234216
0.000182411
0.000144372
0.000121889
0.00022412
0.000153909
0.000109468
8.05945e-05
6.12414e-05
4.78689e-05
3.83887e-05
3.15636e-05
2.66828e-05
2.02449e-05
1.70619e-05
6.67947e-05
3.78037e-05
0.00382645
0.00920717
0.00130672
0.000644013
0.000662825
0.000800379
0.0010133
0.00123832
0.00139371
0.00145697
0.00143088
0.00133012
0.00116314
0.000973458
0.000803502
0.000690037
0.00067188
0.00127441
0.000724728
0.00043806
0.000294352
0.000212539
0.000161962
0.000138657
0.000318814
0.000240562
0.000193212
0.000161358
0.000136886
0.000116854
9.94929e-05
8.32356e-05
6.67693e-05
3.922e-05
2.61771e-05
0.000114576
5.11986e-05
0.00578893
0.0162401
0.00259267
0.000821253
0.000741243
0.000945305
0.00133007
0.00162363
0.00176502
0.00178702
0.00171708
0.00156901
0.00135658
0.00111135
0.000872803
0.000675307
0.000539595
0.000485105
0.0003958
0.000312366
0.000244925
0.000192924
0.000154059
0.000128418
0.000123871
0.000115015
0.000106151
9.73001e-05
8.79706e-05
7.83389e-05
6.89623e-05
6.01875e-05
5.21209e-05
4.11977e-05
3.17838e-05
8.06299e-05
5.75329e-05
9.26769e-05
0.000158093
0.000221965
0.00848881
0.0239347
0.00579043
0.00169527
0.00126932
0.00162802
0.00213513
0.0023245
0.00233965
0.00226369
0.00212042
0.00190325
0.00161559
0.00128692
0.000965036
0.000696676
0.000508426
0.000398484
0.000327811
0.00026978
0.000218408
0.000175993
0.000143832
0.00012253
0.000112393
0.000107992
0.000105094
0.000101349
9.54344e-05
8.6371e-05
7.49125e-05
6.34911e-05
5.32328e-05
4.41185e-05
3.87657e-05
5.76504e-05
5.92572e-05
7.14909e-05
0.000295346
0.00025605
0.0114949
0.0284607
0.0116799
0.0053816
0.00402189
0.00401282
0.00379736
0.00350228
0.00321553
0.00295379
0.00268092
0.00234911
0.00194434
0.00149865
0.00107243
0.000728354
0.000496814
0.000364225
0.000288427
0.000234139
0.000189466
0.000154799
0.000130998
0.000117794
0.000113838
0.00011541
0.00011869
0.000121667
0.000122881
0.000120266
0.000109434
9.61007e-05
8.31817e-05
7.22031e-05
6.84589e-05
8.01427e-05
0.000104776
0.000177496
0.000417376
0.0003915
0.0120747
0.0297932
0.0171809
0.0122902
0.00966173
0.00753049
0.00600346
0.00499052
0.00433245
0.00386097
0.00342284
0.00291394
0.0023209
0.00169939
0.00113128
0.000703937
0.000442576
0.000304393
0.000233436
0.000188004
0.000154822
0.000132461
0.000120084
0.000116309
0.000119334
0.000126993
0.000137686
0.000150993
0.000166977
0.000185387
0.000204623
0.000212871
0.000223481
0.0002472
0.000297204
0.00046176
0.00089882
0.0018205
0.00537724
0.001441
0.0110788
0.0181514
0.0145833
0.0111731
0.00878359
0.00728762
0.00639335
0.00585895
0.00546711
0.00502154
0.00438699
0.0035325
0.00258904
0.00170222
0.000964427
0.000519908
0.000321387
0.000227345
0.000176854
0.000145245
0.000124991
0.000113794
0.000110085
0.000112394
0.000119503
0.000130681
0.00014598
0.000166352
0.000193556
0.00023018
0.000279767
0.000347651
0.000441854
0.000587132
0.000800587
0.00108806
0.00141056
0.00167868
0.00187281
0.00112366
0.0037238
0.00657161
0.00842918
0.00891621
0.008903
0.00843236
0.00743849
0.00603498
0.00443274
0.00278082
0.00167283
0.000968761
0.00055016
0.000333114
0.000228775
0.000175708
0.000145425
0.000126268
0.000114245
0.000107953
0.000106409
0.000108701
0.00011428
0.000123045
0.00013539
0.000152295
0.0001755
0.000207839
0.000253785
0.000319318
0.000411552
0.000539613
0.000705763
0.00088965
0.00103445
0.00106779
0.000936329
0.000587864
0.00371741
0.00849499
0.00848384
0.00702958
0.0060804
0.00509286
0.00401334
0.00295065
0.00200617
0.00125116
0.000760731
0.000472015
0.000314122
0.000232795
0.000190688
0.000166603
0.000150669
0.000138967
0.000130121
0.000123866
0.000120519
0.000120109
0.000122793
0.000128987
0.00013941
0.000155137
0.000177751
0.000209573
0.000253938
0.000315465
0.000400343
0.00051469
0.000658783
0.000822787
0.000944731
0.00105167
0.000804621
0.000609947
0.00267226
0.00318914
0.00360056
0.00451861
0.00400549
0.00356382
0.00322442
0.00277112
0.00222927
0.00167823
0.00118083
0.000788078
0.000520872
0.000356713
0.000259212
0.000200191
0.000163037
0.000139014
0.000123717
0.000114832
0.000110971
0.000111142
0.000114166
0.000119765
0.000127918
0.000138827
0.000152915
0.000170892
0.000193955
0.000223808
0.000261428
0.000308935
0.000368961
0.000444953
0.000540585
0.000687371
0.000733819
0.000680889
0.000552682
0.000433971
)
;

boundaryField
{
    floor
    {
        Cmu             0.09;
        kappa           0.41;
        E               9.8;
        type            epsilonWallFunction;
        value           nonuniform List<scalar> 
29
(
0.000660874
4.83619e-05
8.52161e-05
0.000121441
0.00012081
0.000109284
9.48738e-05
7.82918e-05
6.38192e-05
5.23379e-05
4.33845e-05
3.63688e-05
3.08125e-05
2.63764e-05
2.2778e-05
1.97686e-05
1.71343e-05
1.46743e-05
1.32615e-05
1.02006e-05
1.02006e-05
2.37587e-05
3.78037e-05
5.11986e-05
0.000660874
4.83619e-05
5.78502e-05
0.000417625
0.00127441
)
;
    }
    ceiling
    {
        Cmu             0.09;
        kappa           0.41;
        E               9.8;
        type            epsilonWallFunction;
        value           nonuniform List<scalar> 
43
(
0.00267226
0.00318914
0.00360056
0.00451861
0.00400549
0.00356382
0.00322442
0.00277112
0.00222927
0.00167823
0.00118083
0.000788078
0.000520872
0.000356713
0.000259212
0.000200191
0.000163037
0.000139014
0.000123717
0.000114832
0.000110971
0.000111142
0.000114166
0.000119765
0.000127918
0.000138827
0.000152915
0.000170892
0.000193955
0.000223808
0.000261428
0.000308935
0.000368961
0.000444953
0.000540585
0.000687371
0.000733819
0.000680889
0.000552682
0.000433971
0.0110788
0.0181514
0.00371741
)
;
    }
    sWall
    {
        Cmu             0.09;
        kappa           0.41;
        E               9.8;
        type            epsilonWallFunction;
        value           uniform 0.00267226;
    }
    nWall
    {
        Cmu             0.09;
        kappa           0.41;
        E               9.8;
        type            epsilonWallFunction;
        value           nonuniform List<scalar> 6(0.000221965 0.00025605 0.0003915 0.000587864 0.000609947 0.000433971);
    }
    sideWalls
    {
        type            empty;
    }
    glass1
    {
        Cmu             0.09;
        kappa           0.41;
        E               9.8;
        type            epsilonWallFunction;
        value           nonuniform List<scalar> 9(0.000522936 0.0013173 0.00238412 0.00382645 0.00578893 0.00848881 0.0114949 0.0120747 0.0110788);
    }
    glass2
    {
        Cmu             0.09;
        kappa           0.41;
        E               9.8;
        type            epsilonWallFunction;
        value           nonuniform List<scalar> 2(0.001441 0.00112366);
    }
    sun
    {
        Cmu             0.09;
        kappa           0.41;
        E               9.8;
        type            epsilonWallFunction;
        value           nonuniform List<scalar> 
14
(
0.000522936
0.000687322
0.00072842
0.000841957
0.000958626
0.00107889
0.00120865
0.00133584
0.00142554
0.00145609
0.00141152
0.0012887
0.00109955
0.000875539
)
;
    }
    heatsource1
    {
        Cmu             0.09;
        kappa           0.41;
        E               9.8;
        type            epsilonWallFunction;
        value           nonuniform List<scalar> 3(9.26769e-05 0.000158093 0.000221965);
    }
    heatsource2
    {
        Cmu             0.09;
        kappa           0.41;
        E               9.8;
        type            epsilonWallFunction;
        value           nonuniform List<scalar> 4(0.000717307 0.000143134 0.000143134 0.000777115);
    }
    Table_master
    {
        Cmu             0.09;
        kappa           0.41;
        E               9.8;
        type            epsilonWallFunction;
        value           nonuniform List<scalar> 9(0.00022412 0.000153909 0.000109468 8.05945e-05 6.12414e-05 4.78689e-05 3.83887e-05 3.15636e-05 2.66828e-05);
    }
    Table_slave
    {
        Cmu             0.09;
        kappa           0.41;
        E               9.8;
        type            epsilonWallFunction;
        value           nonuniform List<scalar> 9(0.000318814 0.000240562 0.000193212 0.000161358 0.000136886 0.000116854 9.94929e-05 8.32356e-05 6.67693e-05);
    }
    inlet
    {
        type            turbulentMixingLengthDissipationRateInlet;
        mixingLength    0.01;
        phi             phi;
        k               k;
        value           uniform 0.000101881;
    }
    outlet
    {
        type            zeroGradient;
    }
}


// ************************************************************************* //
