/*--------------------------------*- C++ -*----------------------------------*\
  =========                 |
  \\      /  F ield         | OpenFOAM: The Open Source CFD Toolbox
   \\    /   O peration     | Website:  https://openfoam.org
    \\  /    A nd           | Version:  6
     \\/     M anipulation  |
\*---------------------------------------------------------------------------*/
FoamFile
{
    version     2.0;
    format      ascii;
    class       surfaceScalarField;
    location    "2500";
    object      phi;
}
// * * * * * * * * * * * * * * * * * * * * * * * * * * * * * * * * * * * * * //

dimensions      [1 0 -1 0 0 0 0];

internalField   nonuniform List<scalar> 
852
(
-0.00304118
0.00310097
-0.00412345
0.00108228
-0.00492689
0.000803433
-0.0055395
0.000612616
-0.00592956
0.000390052
-0.00607326
0.000143709
-0.00594963
-0.000123631
-0.00554842
-0.000401215
-0.00489617
-0.000652248
-0.00405857
-0.000837601
-0.00312658
-0.000931986
-0.00219662
-0.000929959
-0.00135411
-0.000842515
-0.000638829
-0.000715281
-0.000636767
-0.000806853
0.000810539
-0.000465412
-0.000341442
0.000211108
-0.00067652
0.000748966
-0.000537858
0.00111047
-0.000361504
0.00133772
-0.000227252
0.00146122
-0.000123497
0.00152135
-6.01281e-05
0.00155461
-3.32639e-05
0.00157464
-2.00282e-05
0.00158564
-1.10049e-05
0.00158911
-3.46614e-06
0.00158319
5.91864e-06
0.00155903
2.41596e-05
0.00149302
6.60123e-05
0.00134583
0.000147192
0.00110465
0.000241174
0.000807448
0.000297206
0.000812433
-0.00216475
0.00542635
-0.00321073
0.00212825
-0.00403232
0.00162502
-0.00463362
0.00121392
-0.00501642
0.000772859
-0.00516554
0.000292823
-0.0050574
-0.000231771
-0.00468832
-0.000770296
-0.00409707
-0.00124349
-0.00335577
-0.0015789
-0.00255115
-0.00173662
-0.00176348
-0.00171763
-0.00106433
-0.00154166
-0.000529703
-0.00124991
-0.000300885
-0.000865585
5.46996e-05
-0.000355636
5.4648e-05
0.000377415
0.000443735
0.000817577
-0.000781603
0.00108932
-0.000948268
0.00132424
-0.00077277
0.00150452
-0.000541786
0.0016136
-0.000336331
0.00163134
-0.000141237
0.00163572
-6.45083e-05
0.00164102
-3.85653e-05
0.00164543
-2.44353e-05
0.00164833
-1.39057e-05
0.00164969
-4.83432e-06
0.00164869
6.9267e-06
0.00164148
3.13668e-05
0.00159745
0.000110046
0.00141011
0.000334528
0.00108998
0.000561299
0.000693643
0.000693547
0.00151873
-0.00151058
0.00718234
-0.00240901
0.00302669
-0.0031326
0.00234861
-0.00364228
0.0017236
-0.0039692
0.00109977
-0.00409223
0.000415857
-0.00396773
-0.000356266
-0.00359565
-0.00114238
-0.00303848
-0.00180066
-0.00237726
-0.00224012
-0.00169165
-0.00242223
-0.00103914
-0.00237013
-0.00046691
-0.0021139
-1.06142e-05
-0.0017062
0.000291487
-0.00116769
0.000444661
-0.00050881
0.000499309
0.00161312
-0.00115808
0.00184484
-0.00101332
0.00180339
-0.000906822
0.00179523
-0.000764614
0.00182019
-0.000566741
0.00184484
-0.00036098
0.00170375
0.0016394
0.00160099
0.00157671
0.00156296
0.00155828
0.00156536
0.00159688
0.00170708
0.00139926
0.000642341
0.00103167
0.000928895
0.000583926
0.00114129
0.00212177
-0.00105002
0.00854996
-0.00175826
0.00373493
-0.00222928
0.00281963
-0.002553
0.00204732
-0.00274982
0.00129659
-0.00277796
0.000443996
-0.00257281
-0.000561415
-0.00216659
-0.0015486
-0.00165219
-0.00231506
-0.00110584
-0.00278647
-0.000584881
-0.00294319
-0.000113984
-0.00284103
0.000293261
-0.00252114
0.000635693
-0.00204863
0.000949306
-0.0014813
0.00132147
-0.00088097
0.00218657
-0.000365793
0.00264029
-0.000443499
0.00221158
-0.000729377
0.00206686
-0.000868596
0.00194205
-0.000782017
0.00183553
-0.000658094
0.00177712
-0.000508329
0.00174853
-0.000332389
0.00189158
-0.000143206
0.001982
-9.05777e-05
0.00205313
-7.12745e-05
0.00210461
-5.16414e-05
0.00212033
-1.58694e-05
0.00207806
4.21116e-05
0.00195301
0.000124901
0.0017126
0.000240261
0.0013001
0.00041234
0.00114842
0.000794024
0.000822946
0.00125437
0.000331011
0.00163322
0.00247776
-0.00073209
0.00966098
-0.00126608
0.00426892
-0.00134924
0.0029028
-0.00138451
0.00208259
-0.0013648
0.00127688
-0.00118044
0.000259635
-0.000810809
-0.000931044
-0.000372578
-0.00198683
4.67429e-05
-0.00273438
0.000402473
-0.0031422
0.000684268
-0.00322498
0.000897779
-0.00305454
0.00106569
-0.00268906
0.00121298
-0.00219592
0.00137301
-0.00164132
0.00159266
-0.00110063
0.00191245
-0.000685583
0.00203194
-0.000562988
0.00193184
-0.000629271
0.00174025
-0.000677012
0.00157813
-0.000619896
0.00144571
-0.000525673
0.00135567
-0.00041829
0.00132304
-0.000299758
0.00137624
-0.00019641
0.00143709
-0.000151425
0.0015008
-0.000134986
0.00156223
-0.000113065
0.00160839
-6.2028e-05
0.00161798
3.25199e-05
0.00157086
0.000172015
0.00145631
0.000354811
0.00127682
0.000591836
0.00111697
0.000953871
0.000940867
0.00143047
0.000540111
0.00203398
0.000414508
0.00260337
-0.0011159
0.00153021
-0.00157917
0.000463065
-0.00152516
-0.000635056
0.0107267
-0.000993428
0.00462729
-0.000533665
0.00244304
-9.76179e-05
0.00164654
0.000295326
0.000883935
0.000808338
-0.000253377
0.00133327
-0.00145598
0.00171616
-0.00236972
0.00193549
-0.0029537
0.00201276
-0.00321947
0.0019893
-0.00320152
0.00189476
-0.00296
0.00176692
-0.00256122
0.0016428
-0.0020718
0.00155357
-0.00155209
0.00152075
-0.00106781
0.0015339
-0.000698735
0.0014895
-0.000518591
0.00134667
-0.000486437
0.00114993
-0.000480275
0.000974741
-0.000444705
0.000840268
-0.0003912
0.000754345
-0.000332368
0.000726897
-0.000272309
0.000756966
-0.00022648
0.000816937
-0.000211396
0.000892817
-0.000210866
0.000978151
-0.000198399
0.00106583
-0.000149705
0.00113954
-4.1196e-05
0.00118079
0.000130768
0.00119071
0.000344893
0.00117757
0.000604975
0.00119141
0.00094003
0.00128562
0.00133626
0.00146764
0.00185197
0.00195982
0.00211118
0.00224088
0.00124914
0.00185109
0.000852854
0.000390643
-0.000661691
0.0118664
-0.000513415
0.00447901
0.000720563
0.00120906
0.00164627
0.000720832
0.00250543
2.47784e-05
0.00329776
-0.00104571
0.00378142
-0.00193964
0.00395618
-0.00254447
0.00386866
-0.00286618
0.00358357
-0.00293439
0.00317252
-0.00279047
0.00269914
-0.00248662
0.00222118
-0.00208325
0.00178578
-0.00163641
0.00142196
-0.00118826
0.00114305
-0.000788896
0.000940562
-0.000496251
0.000765745
-0.000343774
0.00058071
-0.000301403
0.000396691
-0.000296255
0.000241401
-0.000289415
0.000127672
-0.000277471
5.97652e-05
-0.000264461
4.10584e-05
-0.000253602
6.67329e-05
-0.000252154
0.000120588
-0.000265251
0.000191518
-0.000281797
0.000277878
-0.000284758
0.000383883
-0.00025571
0.000514085
-0.000171398
0.000648111
-3.2572e-06
0.000776413
0.000216591
0.000917005
0.000464384
0.00110937
0.000747667
0.00140673
0.00103889
0.00188353
0.00137516
0.00262288
0.00137184
0.00322005
0.000651973
0.00328399
0.000788911
0.00374397
0.00277207
0.00962959
0.0035539
0.00369718
0.00418158
0.000581375
0.00519361
-0.0002912
0.00611991
-0.000901525
0.00657669
-0.00150248
0.00659004
-0.001953
0.00623282
-0.00218726
0.00559507
-0.00222843
0.00477701
-0.00211633
0.00387754
-0.001891
0.0029792
-0.00158828
0.00214867
-0.00125273
0.00143268
-0.00092042
0.000850359
-0.00060594
0.000410561
-0.000349098
0.000104329
-0.000190019
-0.000111646
-0.000127799
-0.00028289
-0.000130158
-0.00042619
-0.000152955
-0.000540828
-0.000174778
-0.000624791
-0.000193507
-0.000678184
-0.000211068
-0.000702014
-0.000229772
-0.000701537
-0.00025263
-0.00068696
-0.000279828
-0.000664281
-0.000304476
-0.000632052
-0.000316988
-0.000580516
-0.000307246
-0.00048882
-0.000263093
-0.000326111
-0.000165967
-0.000122604
1.30851e-05
0.000105442
0.000236337
0.000387851
0.000465258
0.000731444
0.000695302
0.00118792
0.000918687
0.00167104
0.000888719
0.00180693
0.000516081
0.000973481
0.00162236
0.00501066
0.0102226
0.0139159
0.0129807
0.00151651
0.0123585
0.000331027
0.0115999
-0.000142965
0.0105538
-0.000456368
0.00923954
-0.000638722
0.00777001
-0.000717721
0.00624693
-0.000705351
0.00475794
-0.000627348
0.00338202
-0.000515074
0.00216868
-0.000374942
0.00115137
-0.000235416
0.000338646
-0.000107695
-0.000261278
-6.01539e-06
-0.000648742
3.83657e-05
-0.000876287
3.75262e-05
-0.00102036
1.62738e-05
-0.00113279
-1.77286e-05
-0.00123063
-5.51106e-05
-0.001316
-8.94166e-05
-0.00138909
-0.000120416
-0.00145171
-0.00014845
-0.00150712
-0.000174355
-0.00156121
-0.000198547
-0.00162213
-0.000218903
-0.00169742
-0.000229187
-0.00179448
-0.000219927
-0.00192263
-0.000179097
-0.00209406
-9.16588e-05
-0.00231565
5.56219e-05
-0.00257339
0.000270817
-0.00290992
0.000572872
-0.00342574
0.000981074
-0.00421824
0.0014878
-0.00534264
0.00204309
-0.00690696
0.00245304
-0.00876117
0.00237029
-0.00813315
0.000994334
-0.00279675
0.00437517
0.00337779
0.00335736
0.00134883
0.00364589
-0.000431493
0.0035807
-0.000391171
0.00311958
-0.000177604
0.00243051
-2.86497e-05
0.00162628
9.8875e-05
0.000800996
0.000197936
3.04036e-05
0.000255519
-0.000614826
0.000270288
-0.00109659
0.000246348
-0.00142269
0.00021841
-0.00161375
0.000185039
-0.00171914
0.000143754
-0.00178514
0.000103531
-0.00183695
6.80765e-05
-0.00189091
3.62358e-05
-0.0019534
7.3746e-06
-0.00202251
-2.03046e-05
-0.00209483
-4.80901e-05
-0.00217179
-7.14938e-05
-0.00225623
-8.99125e-05
-0.00235171
-0.000103069
-0.00246115
-0.000109466
-0.0025849
-0.000105441
-0.00271962
-8.51986e-05
-0.00285675
-4.19703e-05
-0.0029815
3.30934e-05
-0.0030859
0.000160018
-0.00317435
0.000359266
-0.00325744
0.000655965
-0.00334713
0.00107076
-0.00344718
0.00158786
-0.00349865
0.00209456
-0.00341046
0.00236485
-0.00298457
0.0019444
-0.0016566
-0.000333631
-0.00436855
-0.000795142
0.00425725
-0.000353419
0.00090711
-0.00103238
0.000247472
-0.00155303
0.000129474
-0.00190643
0.000175793
-0.00216855
0.00023347
-0.002354
0.000284332
-0.00248201
0.000325944
-0.00256451
0.000338015
-0.00260747
0.000313249
-0.0026234
0.000262276
-0.00261179
0.000206803
-0.00258114
0.000154391
-0.00254612
0.000108732
-0.00251622
7.36296e-05
-0.00249618
4.80425e-05
-0.00248861
2.86665e-05
-0.00249395
1.27063e-05
-0.00251039
-3.86217e-06
-0.00253784
-2.06343e-05
-0.00257542
-3.39179e-05
-0.00262228
-4.30548e-05
-0.00267741
-4.79322e-05
-0.00273906
-4.78239e-05
-0.00280362
-4.08767e-05
-0.0028649
-2.39226e-05
-0.0029141
7.23015e-06
-0.00293609
5.50884e-05
-0.00290777
0.000131694
-0.00280212
0.000253619
-0.00258379
0.000437633
-0.0022241
0.000711075
-0.00172566
0.00108941
-0.00107194
0.00144084
-4.21099e-05
0.00133502
0.00127679
0.000625501
0.00159443
-0.000651279
-0.00268077
-0.00789362
-0.0111527
-0.00684021
-0.005905
-0.00563837
-0.00549349
-0.00530463
-0.00505974
-0.00476512
-0.00442964
-0.00408248
-0.00376017
-0.00348868
-0.0032724
-0.00310823
-0.00298943
-0.00290547
-0.00284686
-0.00280743
-0.00278384
-0.00277675
-0.00278645
-0.00280949
-0.00284177
-0.00287907
-0.00291644
-0.00294707
-0.00296098
-0.00294401
-0.00287949
-0.00273868
-0.00247631
-0.0020303
-0.00131126
-0.000214319
0.00123341
0.00257502
0.00320707
0.0025626
)
;

boundaryField
{
    floor
    {
        type            calculated;
        value           nonuniform List<scalar> 
29
(
0
0
0
0
0
0
0
0
0
0
0
0
0
0
0
0
0
0
0
0
-4.98429e-06
-1.26534e-05
-1.91123e-05
-2.49848e-05
-2.06181e-06
-3.68637e-06
-1.06105e-05
-1.13008e-05
-1.02192e-05
)
;
    }
    ceiling
    {
        type            calculated;
        value           nonuniform List<scalar> 
43
(
-5.92137e-05
-5.69902e-05
-5.52064e-05
-2.80954e-05
-1.91644e-05
-1.5403e-05
-1.30662e-05
-1.14227e-05
-1.02849e-05
-9.54127e-06
-9.14329e-06
-9.05961e-06
-9.21272e-06
-9.48098e-06
-9.77789e-06
-1.00656e-05
-1.03316e-05
-1.05674e-05
-1.07588e-05
-1.08886e-05
-1.09469e-05
-1.09374e-05
-1.08776e-05
-1.07751e-05
-1.06336e-05
-1.04565e-05
-1.02481e-05
-1.00093e-05
-9.73847e-06
-9.43569e-06
-9.1083e-06
-8.75563e-06
-8.37654e-06
-7.9679e-06
-7.52634e-06
-6.8912e-06
-6.58161e-06
-6.55009e-06
-6.80902e-06
-6.45527e-06
6.31682e-06
3.88971e-06
-8.43223e-05
)
;
    }
    sWall
    {
        type            calculated;
        value           uniform -0.000279284;
    }
    nWall
    {
        type            calculated;
        value           nonuniform List<scalar> 6(-5.42205e-05 -6.47075e-05 -6.93375e-05 -8.48104e-05 -9.33429e-05 -0.000111714);
    }
    sideWalls
    {
        type            empty;
        value           nonuniform 0();
    }
    glass1
    {
        type            calculated;
        value           nonuniform List<scalar> 9(-5.97888e-05 -0.000160631 -0.000245412 -0.000317601 -0.000378931 -0.000430697 -0.000477968 -0.000535263 -0.000599294);
    }
    glass2
    {
        type            calculated;
        value           nonuniform List<scalar> 2(-0.000293211 -0.000325727);
    }
    sun
    {
        type            calculated;
        value           uniform 0;
    }
    heatsource1
    {
        type            calculated;
        value           nonuniform List<scalar> 3(2.05029e-07 2.04924e-07 2.04943e-07);
    }
    heatsource2
    {
        type            calculated;
        value           nonuniform List<scalar> 4(5.14193e-08 5.15261e-08 0 0);
    }
    Table_master
    {
        type            calculated;
        value           nonuniform List<scalar> 9(-1.53773e-07 -1.53866e-07 -1.53899e-07 -1.53921e-07 -1.53936e-07 -1.53947e-07 -1.53951e-07 -1.53944e-07 -1.53909e-07);
    }
    Table_slave
    {
        type            calculated;
        value           nonuniform List<scalar> 9(1.5363e-07 1.53652e-07 1.53629e-07 1.53611e-07 1.53607e-07 1.5361e-07 1.5363e-07 1.5368e-07 1.53771e-07);
    }
    inlet
    {
        type            calculated;
        value           uniform -0.00623645;
    }
    outlet
    {
        type            calculated;
        value           nonuniform List<scalar> 2(0.00823211 0.00331604);
    }
}


// ************************************************************************* //
