/*--------------------------------*- C++ -*----------------------------------*=========                 |
  \      /  F ield         | OpenFOAM: The Open Source CFD Toolbox
   \    /   O peration     | Website:  https://openfoam.org
    \  /    A nd           | Version:  6
     \/     M anipulation  |
\*---------------------------------------------------------------------------*/
FoamFile
{
    version     2.0;
    format      ascii;
    class       volScalarField;
    location    "2500";
    object      PPD;
}
// * * * * * * * * * * * * * * * * * * * * * * * * * * * * * * * * * * * * * //

dimensions      [0 0 0 0 0 0 0];

internalField   nonuniform List<scalar> 
459
(
59.373115448407
47.62873695330763
46.2237312314347
45.000766792802295
44.181837164395105
43.686135286332636
43.545832704174884
43.75270183319681
44.27058340502981
45.18900534657247
46.536641628998886
48.48532425554049
51.04696003473861
53.003951118486874
53.2381304586617
56.74929292178884
56.0738614725718
55.78791461835547
55.89190652164604
56.047870422243705
56.17781689781457
56.08390730470627
55.863430581191416
55.82756576989947
55.8734534315908
55.95041867857068
56.05097380764857
56.181104308923885
56.36070632862907
56.64469485882773
57.15377666210882
57.65726718911432
57.83865231817086
58.4857884739332
57.3300993910099
48.789294351786346
48.32202115706481
47.20179682101525
46.52028724846247
46.1253487422275
46.0311139276833
46.14074214058109
46.387821477160244
46.83836861288384
47.63180635950007
48.934506390319534
50.79615956801289
52.535695220054315
52.58771548750265
52.58771548750265
52.58771548750265
54.81748941438116
55.55389011811531
55.34582380917883
55.42470010824523
55.103438803298275
54.85947239953757
54.776571653455434
54.8305174045456
54.89105892905236
54.93368787587701
54.941961494489725
54.98033028231332
55.02715568603259
55.08555502611663
55.222599896277956
55.6651493320879
56.64542614148413
56.95697068202055
56.52005388093927
59.603009914301325
48.94915394355783
50.26405932665031
49.724997998561
49.589527175279535
49.57202146783894
49.65412182731186
49.67386808536761
49.44358952480259
49.06732564896853
48.86452625506815
49.19308242852124
50.181413542008706
51.86875596831262
52.43166173005293
52.56170506894724
52.639737991779064
49.845680080047096
52.03640298900983
52.72248291358463
53.21042572447548
53.75764141810482
54.13139213871237
54.316895776046074
54.75660240922855
55.06385974324172
55.204044545773876
55.264419473177675
55.29431701492659
55.31894709386531
55.24361983059382
55.0079682404817
55.10819757872586
56.08306415044885
55.66154553157765
53.193840628685
63.6691124856015
49.25109061584847
51.774515110856925
52.32863884719811
53.30721878617489
54.15232831824061
54.80244575271569
54.55148493411946
53.11431945592658
51.13572050424674
49.46589155474005
48.63188912181867
48.78513797805272
49.932881359073804
51.63462023392256
52.613726465263895
51.74409705541101
49.552275311651435
49.49655580808246
50.995549349012556
52.405249371873424
53.56068256946713
54.57803195516223
55.346038002280295
55.609871325116934
55.527891858274124
55.4993535797642
55.535845314524146
55.61293991418768
55.79837428309855
56.166197885171435
56.79950455585348
58.00880884939166
57.67853721751094
56.87447780644949
54.589363972980166
50.803080575260516
68.34650729611275
50.373622588212996
53.272870271108175
54.85535962424945
57.45833762185078
60.40998471597611
61.674919090798824
59.16842830304163
55.26265605149723
51.499663478902654
48.840902873124875
47.37375390435051
47.21815619421093
48.12805939805068
49.71605231016957
51.13419985117267
51.49563908597145
51.337802127907736
51.77847873411276
53.114261145667
54.72425130319806
56.18698680770513
57.4075271194846
58.333717519066354
58.860278360932696
59.00214140089875
59.00912505781547
58.99361668657349
58.943090379299036
58.835385065917706
58.826793986176135
58.878827887274745
58.97679328841385
58.22763741397246
56.80921932625258
53.61682520206248
53.2901148297744
60.31668882778474
59.60831387307444
50.81598787780512
72.79684585738721
52.70769234932247
56.132150308066514
57.763524088879635
61.47044463173832
62.99871687191861
62.32248852244835
58.03468164129743
53.80945038261289
49.95641675399997
47.11360998075513
45.670964463173
45.710389287005476
46.95995342450286
48.97866841330428
51.17769110985619
52.842617925832684
54.01426605527123
55.3096712441402
56.959349943370995
57.99406285826155
58.79600767415803
59.441347254575334
59.9308611882845
60.34238986391517
60.67625705920574
60.90711968134499
61.060897967808216
61.137747189587444
61.060897967808216
60.88147974408722
60.62492312483711
60.167306173314394
58.80199438433983
56.965702162516635
53.60463156523116
53.47570052420686
54.34044974516789
54.2994360312739
54.96816726423568
76.9660586982937
57.88311174240349
64.28161092343919
62.908940368162426
62.723996703407195
61.310347804651265
58.3940476472794
54.425407973887424
50.129531654014706
46.44567282704102
44.13475812063721
43.48971965683702
44.47063264953551
46.706289711652644
49.794719075103494
53.1628629270539
55.423853210079734
56.72332792170193
57.89046236501784
58.8993507600003
59.776371324664616
60.470854886358495
61.00965029490934
61.419294376372875
61.726005629783856
61.95573287119602
62.083242412384536
62.159707385741456
62.134222482565846
61.981241520657
61.674919090798824
61.2913643192328
60.85583691508912
60.22415564909066
58.04568043207748
54.946869069612134
53.733645417357046
53.1503861016879
51.78416401793945
56.37897388534484
82.53834287575526
74.30720292690788
72.18798989722113
67.1929492512622
64.09727363261149
59.6905747591534
54.01346734772252
48.2256008818167
43.565376691396274
40.74544446335482
40.07363105327845
41.446829190231306
44.40020482200131
48.5128499723746
53.39955659291194
55.68391074432671
57.47580718047616
58.8993507600003
60.00807267937459
60.830191205248134
61.49601505141833
62.00674681036478
62.3889156038833
62.6686695190798
62.84646554082687
62.947981485099284
62.99871687191861
62.97335106962079
62.871850146212196
62.6940799947736
62.41436566146227
62.00674681036478
61.572707347846276
61.060897967808216
60.470854886358495
59.87937440265273
58.80484525284492
58.18509870538023
54.911167689672226
50.34588175275404
89.28044587702499
85.00140312325959
78.40613693038844
69.85779052399968
58.89065726199516
47.19512364365163
38.29268427453811
33.2117817992178
31.642146002945694
32.980951302645735
36.65034988505943
42.12230400865543
48.63306450427665
53.16006762813077
56.151829379510545
58.56336934646179
60.08526148361711
61.137747189587444
61.90470553646683
62.49069452569232
62.92260812915372
63.02159216060433
62.976857873535145
62.87728233968654
62.74999669440557
62.56766609935076
62.308119303265485
61.95759445397506
61.55149766463248
61.03616994774232
60.41613917517453
59.76194208762502
59.15498089596426
58.38251208040739
57.50825253188502
56.76137744041218
56.27018837547678
55.98986191574498
55.38667987980816
53.76265574847466
98.9957650924402
68.88668604087228
32.24814904294087
8.166824034058763
5.606009790284972
12.674581919303236
24.335106192530574
36.149865252349116
44.50029403395888
51.236159119918774
55.241776744265785
58.01995883462209
59.164108434759655
60.03319176412794
60.71719592484041
61.17304086694094
61.48677294650179
61.62964431293779
61.67458648521047
61.6397149683727
61.5295421959947
61.362202119796095
61.15381008329174
60.89647415824083
60.61490325959034
60.31574281659331
60.012884596922746
59.751326520788325
59.5530377090636
59.38547017124643
59.296186165500714
59.241923355925
59.19794243093764
59.31083105976153
59.880330820123866
61.78023532783399
65.54989290047888
57.20500805316817
92.70144683806521
26.060834960666014
5.041965158013937
11.978358068238151
22.164225102587395
30.71053128522857
38.12156025997237
44.25801173532439
49.17954159375007
52.894277200876985
55.40707256138362
57.1659916646088
58.415972056974375
59.284510059709234
59.89595805846759
60.29229986845874
60.553446391397564
60.688713730620705
60.767291092512835
60.81502898917474
60.82121154799307
60.783169975186226
60.72674831658273
60.6266814565425
60.53983113914137
60.44827810384378
60.366158419492756
60.31841795410531
60.33686893127219
60.5235282079713
60.89815958408563
61.50992700344082
62.152534888194545
62.69635174707601
63.32868751087989
65.34876247259498
61.89686044342794
59.284187643812885
20.453988851319508
25.894109166059025
21.136412528800122
7.926987074226062
21.678630314901426
30.715536252158685
37.097066949533364
42.318349050486525
46.71149568774841
50.34561619432518
53.27146971131884
55.54993414450482
57.17550231575899
58.287837987028404
58.99538113820241
59.4212393771692
59.62601977761498
59.70377246259284
59.69006800514943
59.66688147577743
59.65001826276167
59.64140811455105
59.650887098151514
59.649190206719894
59.68945572252943
59.718796279390794
59.77046055984935
59.88443297628476
60.02737595620444
60.279531757631574
60.651509710767684
61.26419712242171
62.399920658373716
64.41479550174665
65.88776341748479
66.18568151549925
64.47664645014271
62.2623729987035
60.03771857909281
60.28599839105045
)
;

boundaryField
{
    ".*"
    {
        type            zeroGradient;
    }
}


// ************************************************************************* //
