/*--------------------------------*- C++ -*----------------------------------*=========                 |
  \      /  F ield         | OpenFOAM: The Open Source CFD Toolbox
   \    /   O peration     | Website:  https://openfoam.org
    \  /    A nd           | Version:  6
     \/     M anipulation  |
\*---------------------------------------------------------------------------*/
FoamFile
{
    version     2.0;
    format      ascii;
    class       volScalarField;
    location    "500";
    object      PPD;
}
// * * * * * * * * * * * * * * * * * * * * * * * * * * * * * * * * * * * * * //

dimensions      [0 0 0 0 0 0 0];

internalField   nonuniform List<scalar> 
459
(
51.872146081553765
39.53921669433235
37.77028754775904
36.4682496446604
35.737643997659546
35.502049679211495
35.81540737686497
36.63982212488377
38.112222743622546
40.483740018402074
43.863687296388065
45.57467403683339
46.341036460826295
47.16143053344288
48.293867504914466
56.657874461203626
55.53980911012421
54.81107124859222
54.78503849940181
55.14946172522793
55.56582750768462
55.086710686432504
54.79237116671641
54.87569678446546
55.124564708238665
55.42920299414284
55.76555123635123
56.13875880129843
56.570129114180915
57.13907671708702
57.96246989098596
59.231850057886
60.947116345019026
62.149085174142556
49.042830150271456
40.67387729699703
39.878772777203395
38.64718198281786
37.968310891571086
37.72801701423195
37.838521264944035
38.183517169934326
38.9339100832209
40.27345457002203
42.30327164319428
44.86203682717318
45.4981945781744
46.18754195902563
47.08439771135982
47.39267201560235
47.9845557913887
56.18269499217424
54.2122524767858
53.56138457707573
53.45804672653726
53.24650695780433
53.12619948466343
53.30665496927425
53.60074994583385
53.98750620612309
54.355903241279805
54.71026262866386
55.07248957657389
55.446404679919915
55.83614487399521
56.33277564011045
57.098666001641014
58.48925203659627
59.95750993901558
60.94874572132836
50.73883814058322
40.8778212672945
42.05150336780476
41.556824702828145
41.38862941445874
41.37907789703355
41.162795145190934
40.42107108211874
39.59923446715037
39.3602754596419
40.10253239674833
42.04660170189128
44.740988113081826
45.70220469531342
46.36662933193027
46.01625378075197
44.772521013342896
50.23280720366258
50.06766286072261
49.48615516035255
49.83872978277325
50.733390178036146
51.547162107439824
52.022610951230426
53.198553002921045
54.20943018795259
54.88555666800861
55.447568106559345
55.931083940040054
56.40171696158701
56.77803603399671
56.929907604362164
57.32603296655862
58.46468171887486
58.75731216525212
57.74076723993447
54.55847031680743
41.22484280579432
43.932206702089196
44.950015489503706
46.23169610058801
46.98347539472061
45.559043680392165
42.344824409705595
39.45207151629693
37.82843939728024
37.952986924954445
39.55619431556947
42.04014792061907
44.23185307554284
44.696496706133985
43.69420346159756
41.91055844876016
40.744549840150036
42.44756609510381
44.41336147283392
46.440081416550086
48.63448471639244
50.85381500562023
52.872055572759486
54.222678362131084
54.63587728249924
55.04379049009653
55.63693781515454
56.307348771867595
57.06832522474216
57.935146653508745
59.01347216684887
60.638040087164846
60.474370147683196
59.645110255141546
58.00717413378852
55.7439676550337
59.31723703749253
42.3704734583624
45.73186860031676
48.482242066415914
52.85646568030945
54.05602501758833
48.1767528552566
42.20225169072185
38.13639135452608
36.10927039327814
36.108443031448346
37.7900967856693
40.49759486721824
43.14955774217111
44.512201677524914
44.31186689987232
43.53909718572989
43.726779394505094
44.89114578120923
46.8513506762667
49.303970104816734
51.90332487494911
54.45695264306819
56.70643227824231
58.503123759424255
59.48932047037939
60.206074638326754
60.86720009648865
61.43747206656491
61.89038389687754
62.25350734576152
62.56891342292798
62.80670959487816
61.94356563400802
60.262884561318735
57.46044092202657
57.19721707165834
65.40187754649548
66.47136174380896
58.31048930221175
64.20584190810995
44.73442637239474
48.97246084376774
52.581020002910364
56.216046142452356
52.70972183406141
46.01874769146793
40.10002938080303
35.923534184576624
34.06864446848829
34.513271513269444
36.82262870660122
40.33171962688276
43.970967231054445
46.56421046724419
47.54872508097422
47.77412241926265
48.63937101935394
50.285547347365345
52.55739471528743
55.17457068259132
57.81950071947528
60.12499260805966
61.48503137587454
62.60746642463626
63.47003842710578
64.12655734611003
64.60450380146762
64.90553618341173
65.05580473155948
65.05580473155948
64.90553618341173
64.52914419871084
63.34888482865013
61.15993575190099
57.90200639092796
57.550490736655306
59.719812494257404
60.45159551799713
61.506848459416446
69.10818022416014
50.08210771072494
57.86283635896587
57.42419771681984
54.063106433419385
48.3729954494694
41.63564924462364
35.823449957491704
32.359529645152534
31.641270064249298
33.44318455604177
37.24408228840242
42.37434639062362
47.69060801432885
51.01222543220273
52.624249412846915
53.89987331231853
55.35766285868131
57.02149448603886
58.7835831591087
60.536406095552074
62.149085174142556
63.520638216861386
64.60450380146762
65.45569254057285
66.07802031738828
66.54886496005759
66.82058898882605
66.91923596514407
66.86992335094428
66.64774865370035
66.32606749755712
65.80457936408422
65.05580473155948
62.9748109250357
59.75792250302624
58.45183689477599
58.542979710534546
57.6845096404674
62.01571955648743
75.66470556749861
67.9067383664457
65.55576184162655
59.028915438111916
51.1615678715327
41.730229505445564
33.64946933331116
28.8178321001176
27.59435894993956
29.55533653759184
34.09233796598154
40.63255819411713
48.73004575990186
52.7543759107459
55.48777038953502
57.255121439204345
58.52495122482429
59.97054038268013
61.536190497514
63.03930343996984
64.42860251408155
65.65517446844939
66.59831745251891
67.33750342837476
67.87636689744843
68.24215485297958
68.46098072973099
68.55807849096962
68.50954185213807
68.3151512657208
67.99844435774989
67.60728277805312
67.09165765491525
66.35084374302272
65.53053485751406
64.75510177377303
63.51410475640327
63.02807831414781
60.32929161830649
56.95594162247158
84.16196646037676
79.30866407177311
72.20428201851504
54.76946281244486
34.591335131440616
23.002202424832547
18.81185233421806
19.349419674694857
23.66136314957643
31.200019751434397
40.91499128081067
49.094375221591314
55.279591413367875
58.73187245195281
60.664830694773805
61.94499928954164
63.11539708810253
64.35314996375462
65.63025635389604
66.60411307809856
67.25411303161906
67.72497565208849
68.03364945148712
68.23507128292093
68.3573791551155
68.3766501267064
68.30205057288683
68.09864776380063
67.75930675339843
67.29317545238843
66.73249037276472
66.10227044650989
65.39549981853388
64.5925706506618
63.781734054071926
63.16130789982218
62.863477571831034
62.7862554808751
62.287528823812465
60.917374462609324
100.0
88.42077609242705
39.04286553839664
7.039160775327076
8.03696529520164
21.70542256377115
35.96318376066239
47.93303640594341
53.78020926523507
56.38181225638155
58.682631927067455
60.40748663019215
61.71148329233023
62.84813094686208
63.956829413885266
65.028695662871
65.97370741495286
66.69028364357496
67.17923246204356
67.47075774070154
67.63003263426369
67.6420218111916
67.55917854748856
67.42599058862169
67.2099675061753
66.95926899654174
66.70386604415852
66.4299780908824
66.17899848003103
65.96564713960902
65.7942357657086
65.70164013068015
65.66937832600414
65.86207027923501
66.5665068080261
68.45167459033425
71.77661655304487
65.75856271039666
93.17644456207283
18.820196407425684
6.399606873541487
18.29678837755513
29.979959769496574
39.88488978473897
47.43714491879588
52.930741747125396
56.64430289299623
59.20964442602243
61.07447952996901
62.48473649417219
63.60633565355189
64.57111281027778
65.45416972653979
66.22092502840098
66.84008697763645
67.29110265851133
67.56222169815281
67.69382122145777
67.74705975083997
67.72683277369255
67.65942160398654
67.56932496155162
67.4820799548785
67.34886487904066
67.25240716225991
67.17875518993986
67.1485975441368
67.24789975817073
67.51594236125653
67.99983745840436
68.56764548234455
69.1456567365455
69.82428384530971
71.81001570036656
69.0393546770695
67.4004851517918
10.446799999123769
13.6057745573748
11.067719127320046
15.673940405287482
34.37331614046981
43.59968684906711
49.373436253857435
53.711254918585645
57.0767132124657
59.668026580747764
61.640994694529454
63.11758244256331
64.26072252195345
65.1851565911651
65.93341745675512
66.6016662772239
67.14624994667628
67.59546604690999
67.94699032525813
68.22494145763069
68.37797203743906
68.48392549026099
68.54429222760248
68.5614178659421
68.53844272349195
68.4797294123039
68.44271647664927
68.36208990717111
68.33075295422276
68.35038322138512
68.46854415374233
68.79789187654333
69.48906180063103
70.73616997213864
72.3315640648723
72.51661958560383
70.9251723758833
69.64920631315968
67.79838196445615
67.80673347607025
)
;

boundaryField
{
    ".*"
    {
        type            zeroGradient;
    }
}


// ************************************************************************* //
