/*--------------------------------*- C++ -*----------------------------------*=========                 |
  \      /  F ield         | OpenFOAM: The Open Source CFD Toolbox
   \    /   O peration     | Website:  https://openfoam.org
    \  /    A nd           | Version:  6
     \/     M anipulation  |
\*---------------------------------------------------------------------------*/
FoamFile
{
    version     2.0;
    format      ascii;
    class       volScalarField;
    location    "200";
    object      PPD;
}
// * * * * * * * * * * * * * * * * * * * * * * * * * * * * * * * * * * * * * //

dimensions      [0 0 0 0 0 0 0];

internalField   nonuniform List<scalar> 
459
(
61.63478316774322
50.360306119944354
49.376237433416634
48.17110969144568
47.30863924905918
46.712357950275134
46.34181583239144
46.2443073044197
46.39864230046786
46.840784295936196
47.594080794855294
48.75376494724464
50.478050024136884
52.500744414147775
53.082465880800065
56.32050832856562
55.69684383240915
55.462856148300375
55.41085185908086
55.3848488208386
55.35884520115827
54.96429170980525
54.79977463317424
54.763934905448515
54.77359545109713
54.80166594461043
54.82329663935137
54.87297162868577
54.973082362207954
55.181320861771475
55.20281187393067
55.15079659978827
55.04676031849505
55.35884520115827
60.20376646977992
51.250076771847105
51.250050104303135
50.13561817739298
49.48367203282337
49.012683357151516
48.76299520390902
48.69839850398358
48.822855746342874
49.0637053238379
49.4175798389001
49.98168061533116
50.862408082684475
51.92957620579418
52.844413739643144
54.500469716422984
54.21434986328662
52.33802113522952
55.51485798288599
55.30683626042386
55.176804484666135
54.803436915081534
54.38865897240762
54.15147839077649
54.03446223884369
53.966758651048934
53.875767709875625
53.77337983418177
53.67314355354952
53.578332167322195
53.49145031473032
53.505622211762976
53.74840369918463
54.058236592289695
54.03221752282563
52.435610527823286
63.16670231423224
51.128571822546775
52.97844601592333
52.323158432834184
52.12073246805971
52.038544305311994
52.02501664801715
52.099233212184004
52.22110360852848
52.155956905618034
51.87006298350698
51.55791057211521
51.509751582640384
51.87653779463158
52.87138510275511
54.708597105900054
54.578519413276204
50.552645126352864
54.14622566524719
54.98285793095039
54.890882227077455
54.767108915695175
54.60405229088461
54.43951091283438
54.543026203383384
54.55594484052706
54.430710183339905
54.240712539394146
54.02821677977301
53.7896786971539
53.504650162149424
53.03772889290243
52.92004198500099
53.71998967482246
52.62992209730501
49.166200157952524
67.56157018732253
51.214241907871106
54.24923594788035
54.33731140058831
54.96902962720435
55.57889987855265
56.093026176048
56.48387872999873
56.59319106627531
55.90684047819979
54.53001457994047
52.9873586854863
51.82900254154015
51.443855061935956
52.13191721258941
53.99619682711574
54.78664017059835
55.02075011629316
53.52943602963435
54.55623149659812
55.41085185908086
55.51485798288599
55.56685727688577
55.56685727688577
55.41913254073758
54.65105508104733
53.973717485953145
53.42821729755932
52.99128041310169
52.70647068792379
52.70049637546131
53.03750765583773
54.01567862561394
54.15477469623328
53.86621980089073
51.19227137503369
46.55714455197969
72.33832175912372
52.177800040094155
55.348117468738366
56.069637413061834
57.68619120893111
59.3501571212292
60.857390345033664
61.88147710181272
61.60310000448804
59.493573619222836
56.56407007470663
53.74124542410383
51.69161176443671
50.7912690015129
51.20519764924611
52.61857719562604
54.286920934043565
55.05345391281522
54.76395219937714
55.5681549860858
55.80082035370437
55.93077397113841
56.034722397442586
56.08669155088668
56.13865721614408
56.19061930689504
56.15989070763506
55.568402586817754
55.05582724631694
54.634066830252294
54.328731178019495
54.25799629654738
54.34932738845385
53.93037817006511
53.076867585379205
49.88840895942069
49.729726610501686
55.80082035370437
54.477748214554246
45.479729146151804
76.60970365760477
54.305737886223596
57.542380906293985
57.8679593502232
59.8316016665215
62.749221243582504
64.34778666901994
65.74844732135833
64.80328519455327
60.78551674604584
56.89314280899344
53.44816745423332
51.099865250278846
50.12521987825945
50.53072438746295
52.01440807978033
53.951040773096054
55.3848488208386
55.72283905527624
56.034722397442586
56.29453241944989
56.450373119864004
56.58021232981167
56.65810301436066
56.73598371074255
56.78789848167122
56.813854126650654
56.813854126650654
56.76194167275761
56.63214054820834
56.42440216486661
55.863264848872696
55.179177970337946
54.025685740821324
52.635166153322956
49.47338149604487
49.765208432552186
50.033916078978734
49.644542044694774
50.02790787350164
80.25526823395526
59.28823378480373
64.93374359923504
61.90064921795278
61.63988937555982
63.39955031535492
65.67378960691101
64.96119745712313
62.65456182510856
59.34115468411126
55.494142659619285
52.10052825694848
49.93198135563206
49.344331640757716
50.24162136532448
52.224520457340375
54.75663496638429
55.77482732668868
56.24257773678944
56.606176983085994
56.8398085968647
57.0214560847233
57.15116666291226
57.25491150779624
57.332705908711745
57.384561902309116
57.41048778442929
57.384561902309116
57.30677581895131
57.12522713529247
56.86576188147741
56.47634305161052
56.08669155088668
55.235361811090485
53.31318503202792
50.39731138550786
49.442868340263736
48.72120638128141
47.108254504016884
51.944361010709265
85.3371978415461
75.87279425621944
73.91113406287084
68.14213800850689
65.55672754289489
64.47563335349224
63.82109451190025
62.520613996683494
59.93880267137069
56.164326312368566
52.26192278111518
49.34337282640913
48.110368064931805
48.63445745812723
50.67705315576616
53.67771234260373
55.59285594429459
56.372457228363146
56.89171396965668
57.20304176017391
57.43641224227901
57.59192847136559
57.721484169459
57.7991990190233
57.87689958272833
57.928691876897375
57.95458556685014
57.90279654523053
57.82510080874523
57.66966647817726
57.41048778442929
57.0214560847233
56.606176983085994
56.21659898484676
55.82681262723767
55.384502340453146
54.3217170981731
53.72166606908082
50.225620777486554
45.31456489468774
91.21138996182424
87.02924849183654
80.50195537305125
73.81823524123513
68.79892980923134
65.38764315127817
62.81011956082742
59.598389586840206
54.57673643811473
49.68986512313897
46.38436680853296
45.2718812772649
46.248435586753494
49.01319646360058
53.059925118064506
55.15079659978827
56.372457228363146
57.099286302818044
57.540095613729406
57.7991990190233
57.98047760420213
58.10991262107145
58.23930469017642
58.33335623794068
58.01206393167536
57.65329348607023
57.25363228540149
56.814181005955824
56.32937292464752
55.77307557496235
55.17209815011283
54.51221262711369
53.91801824959849
53.23957875553359
52.418640703556086
51.671642102588045
51.10478150085624
50.749897493291975
50.13669623710392
48.331653579985215
94.49841104671239
8.799626993469602
8.722065292042203
18.914253667616407
25.251069134591432
28.46980795732597
31.47609000167016
34.773262777061746
38.545951906679356
42.96836542205503
48.274686232858144
52.41940366888197
54.76062613652059
56.346483268472625
57.28084434836062
57.82510080874523
58.13579451426395
58.066817997467155
57.789306461535205
57.50099570829225
57.18109349174259
56.86841523956386
56.47842736544098
56.08662982293696
55.67411477294971
55.23063466495024
54.83310515557127
54.48458238406836
54.2394843371402
54.08750703328064
54.0206993987765
54.017267335373305
54.00708493792443
54.09778135960025
54.652654532472134
56.550128915450145
60.398978614366264
51.0762366376378
74.07675921153472
7.192145522665214
10.254764918759463
19.827769986810594
26.54444406490569
31.51071817065653
36.57651019653312
41.50385433632079
45.837789322981294
49.59130626804664
53.01755792890403
55.20281187393067
55.864983415119994
56.03330955938193
56.27941322276894
56.454011537465504
56.480030581731576
56.401662445161996
56.26629268643048
56.09672151822321
55.930265917637314
55.76972117685833
55.612826455308834
55.429923038039504
55.27337202896
55.149486555784165
55.018084388472445
54.93244213948757
54.96399999105798
55.16519556579325
55.592247188020096
56.25934275492651
56.97702777007721
57.54771906569331
58.1509663197383
60.1872805028884
56.57743515101951
53.39006469093078
21.971647152786133
26.706708955315037
22.35558390684828
6.145079182829747
14.8968847949876
23.851362422769924
30.980756928917145
35.9619117324726
41.217642211429315
45.558244843252396
48.25458918689546
49.89608624209462
51.16075139815967
52.052876942560054
52.461281817976904
52.54997229807694
52.51055067423474
52.46286639713286
52.43672224587374
52.431762269277336
52.453894074308785
52.46961475250163
52.50886100823789
52.57558412128168
52.64547775721707
52.77724587816817
52.92175044131372
53.11982723543902
53.395583838145185
53.78732190322427
54.33337518399072
55.14988731071878
56.49106256195315
58.81088884043456
60.94420398949694
61.32828699063764
59.53015222392316
56.746286139689985
54.22066042965944
54.647528090928084
)
;

boundaryField
{
    ".*"
    {
        type            zeroGradient;
    }
}


// ************************************************************************* //
