/*--------------------------------*- C++ -*----------------------------------*\
  =========                 |
  \\      /  F ield         | OpenFOAM: The Open Source CFD Toolbox
   \\    /   O peration     | Website:  https://openfoam.org
    \\  /    A nd           | Version:  6
     \\/     M anipulation  |
\*---------------------------------------------------------------------------*/
FoamFile
{
    version     2.0;
    format      ascii;
    class       volScalarField;
    location    "2300";
    object      epsilon;
}
// * * * * * * * * * * * * * * * * * * * * * * * * * * * * * * * * * * * * * //

dimensions      [0 2 -3 0 0 0 0];

internalField   nonuniform List<scalar> 
459
(
0.000520399
0.000683349
0.000723668
0.000836273
0.000951926
0.00107098
0.00119915
0.00132572
0.00141572
0.00144768
0.00140536
0.00128527
0.00109909
0.000878096
0.000666654
4.82382e-05
8.52196e-05
0.000121184
0.00012028
0.000108789
9.44764e-05
7.80516e-05
6.37065e-05
5.23057e-05
4.33995e-05
3.64115e-05
3.08713e-05
2.64467e-05
2.28527e-05
1.98438e-05
1.72078e-05
1.47447e-05
1.33478e-05
1.02869e-05
0.00131263
0.00185865
0.000647778
0.000630482
0.000666419
0.000723304
0.00080463
0.000904111
0.000992012
0.00104089
0.00103141
0.000959856
0.000835705
0.000686325
0.000573596
0.000723197
0.000140064
5.80792e-05
0.000137157
0.000145971
0.000133332
0.000113867
9.56198e-05
8.63573e-05
7.00332e-05
5.55759e-05
4.41053e-05
3.52478e-05
2.84386e-05
2.32091e-05
1.91946e-05
1.62293e-05
1.44141e-05
1.36456e-05
3.53966e-05
2.39689e-05
0.00237871
0.00449275
0.00081363
0.000611535
0.000649009
0.000739638
0.000868884
0.00101921
0.00114526
0.00121286
0.0012067
0.00113105
0.000997991
0.000839691
0.000696209
0.000629183
0.0007752
0.000422767
0.000307259
0.000233762
0.000181677
0.000143766
0.000121508
0.000223058
0.000153246
0.000109089
8.03987e-05
6.11598e-05
4.78562e-05
3.84175e-05
3.16155e-05
2.67468e-05
2.0332e-05
1.71727e-05
6.76406e-05
3.82096e-05
0.00382229
0.00922476
0.00130443
0.000641168
0.000659339
0.000794708
0.00100388
0.0012275
0.00138369
0.00144942
0.00142571
0.00132696
0.00116225
0.00097243
0.000802111
0.000687848
0.000669289
0.00127295
0.000722012
0.000435446
0.000292409
0.000211274
0.000161275
0.000138413
0.000317508
0.000239668
0.000192734
0.000161251
0.000137073
0.000117158
9.9887e-05
8.36734e-05
6.71905e-05
3.94722e-05
2.64017e-05
0.000116506
5.17842e-05
0.00578813
0.0162742
0.00259076
0.000816887
0.000735548
0.000934885
0.00131372
0.00160889
0.00175321
0.00177884
0.00171198
0.0015665
0.00135598
0.00111129
0.00087234
0.000673962
0.00053735
0.000482617
0.000393465
0.00031038
0.000243431
0.000191998
0.000153678
0.0001285
0.000124248
0.000115545
0.000106786
9.80311e-05
8.87724e-05
7.91305e-05
6.9719e-05
6.08923e-05
5.27588e-05
4.16941e-05
3.21782e-05
8.17964e-05
5.83938e-05
9.33614e-05
0.00015922
0.000223913
0.00849337
0.0239797
0.00578665
0.00168603
0.00125547
0.00159396
0.00211128
0.00230738
0.00232729
0.00225487
0.00211514
0.00190134
0.00161622
0.00128849
0.000966018
0.000696302
0.000506788
0.000396211
0.000325582
0.000267954
0.000217151
0.000175333
0.000143693
0.000122799
0.000112948
0.000108721
0.000105952
0.000102336
9.65444e-05
8.75727e-05
7.60605e-05
6.45294e-05
5.41475e-05
4.48814e-05
3.94185e-05
5.84862e-05
6.02144e-05
7.2385e-05
0.000297351
0.000258846
0.0115086
0.0285094
0.0116733
0.00535846
0.00399118
0.00398167
0.00377601
0.00348763
0.00320446
0.00294546
0.00267607
0.00234835
0.00194685
0.00150229
0.00107507
0.000728921
0.000495643
0.000362257
0.000286557
0.00023277
0.00018867
0.000154501
0.000131079
0.000118152
0.000114388
0.000116092
0.000119509
0.00012267
0.000124127
0.000121787
0.000111266
9.78225e-05
8.48237e-05
7.37761e-05
7.00552e-05
8.20551e-05
0.000107611
0.000182472
0.000426138
0.000400665
0.0120909
0.0298749
0.0172027
0.0122991
0.0096619
0.0075342
0.0060041
0.00498656
0.00432514
0.00385342
0.00341863
0.00291513
0.00232622
0.00170575
0.00113609
0.00070569
0.000442351
0.000303429
0.000232609
0.000187531
0.00015467
0.000132545
0.000120327
0.000116653
0.000119748
0.000127484
0.000138308
0.000151836
0.000168157
0.000187028
0.000206844
0.000215853
0.000227029
0.000251812
0.000303762
0.000473168
0.000921496
0.00185799
0.00544025
0.00145753
0.0110933
0.0181818
0.0146099
0.0111867
0.00878834
0.00728315
0.00638077
0.00584124
0.00544881
0.00500816
0.00438306
0.00353899
0.00260019
0.00171319
0.000974459
0.00052377
0.000322961
0.000228118
0.000177429
0.000145816
0.000125566
0.00011435
0.000110606
0.000112879
0.000119975
0.000131198
0.000146635
0.000167278
0.000194935
0.000232254
0.000282856
0.000352072
0.00044777
0.000595107
0.000811168
0.00110142
0.00142596
0.0016946
0.00188972
0.00113431
0.00375093
0.00660491
0.00844498
0.00892046
0.00890073
0.00842904
0.00743941
0.00604569
0.00445405
0.00281599
0.0016931
0.000982016
0.000558678
0.000337933
0.000232087
0.000178392
0.000147818
0.000128449
0.000116247
0.000109801
0.000108112
0.000110289
0.000115805
0.000124576
0.000137008
0.000154098
0.000177603
0.000210396
0.000257009
0.000323525
0.000417085
0.000546825
0.000714838
0.000900296
0.0010456
0.00107795
0.000943332
0.000592784
0.00372268
0.00846755
0.00847235
0.00702698
0.00609095
0.00511392
0.00403958
0.00297749
0.00203158
0.00127332
0.000775927
0.000482368
0.000321545
0.000238737
0.000196126
0.000171917
0.00015589
0.000143964
0.000134732
0.000128051
0.000124275
0.000123467
0.000125811
0.000131748
0.000142015
0.000157704
0.000180417
0.000212511
0.000257381
0.00031969
0.00040567
0.000521433
0.000667115
0.000832827
0.00095549
0.00106115
0.000810774
0.000615291
0.00267531
0.00319213
0.00360355
0.00452187
0.00401577
0.00357633
0.00324264
0.00279542
0.00225776
0.00170823
0.00120923
0.00081218
0.000539284
0.000370211
0.000269174
0.000207728
0.000168882
0.000143613
0.000127367
0.000117773
0.000113433
0.0001132
0.000115941
0.00012136
0.000129424
0.000140327
0.000154492
0.000172639
0.000195983
0.00022631
0.00026457
0.000312924
0.000374018
0.000451301
0.000548391
0.000697707
0.000743792
0.000689255
0.000559148
0.000438542
)
;

boundaryField
{
    floor
    {
        Cmu             0.09;
        kappa           0.41;
        E               9.8;
        type            epsilonWallFunction;
        value           nonuniform List<scalar> 
29
(
0.000666654
4.82382e-05
8.52196e-05
0.000121184
0.00012028
0.000108789
9.44764e-05
7.80516e-05
6.37065e-05
5.23057e-05
4.33995e-05
3.64115e-05
3.08713e-05
2.64467e-05
2.28527e-05
1.98438e-05
1.72078e-05
1.47447e-05
1.33478e-05
1.02869e-05
1.02869e-05
2.39689e-05
3.82096e-05
5.17842e-05
0.000666654
4.82382e-05
5.80792e-05
0.000422767
0.00127295
)
;
    }
    ceiling
    {
        Cmu             0.09;
        kappa           0.41;
        E               9.8;
        type            epsilonWallFunction;
        value           nonuniform List<scalar> 
43
(
0.00267531
0.00319213
0.00360355
0.00452187
0.00401577
0.00357633
0.00324264
0.00279542
0.00225776
0.00170823
0.00120923
0.00081218
0.000539284
0.000370211
0.000269174
0.000207728
0.000168882
0.000143613
0.000127367
0.000117773
0.000113433
0.0001132
0.000115941
0.00012136
0.000129424
0.000140327
0.000154492
0.000172639
0.000195983
0.00022631
0.00026457
0.000312924
0.000374018
0.000451301
0.000548391
0.000697707
0.000743792
0.000689255
0.000559148
0.000438542
0.0110933
0.0181818
0.00372268
)
;
    }
    sWall
    {
        Cmu             0.09;
        kappa           0.41;
        E               9.8;
        type            epsilonWallFunction;
        value           uniform 0.00267531;
    }
    nWall
    {
        Cmu             0.09;
        kappa           0.41;
        E               9.8;
        type            epsilonWallFunction;
        value           nonuniform List<scalar> 6(0.000223913 0.000258846 0.000400665 0.000592784 0.000615291 0.000438542);
    }
    sideWalls
    {
        type            empty;
    }
    glass1
    {
        Cmu             0.09;
        kappa           0.41;
        E               9.8;
        type            epsilonWallFunction;
        value           nonuniform List<scalar> 9(0.000520399 0.00131263 0.00237871 0.00382229 0.00578813 0.00849337 0.0115086 0.0120909 0.0110933);
    }
    glass2
    {
        Cmu             0.09;
        kappa           0.41;
        E               9.8;
        type            epsilonWallFunction;
        value           nonuniform List<scalar> 2(0.00145753 0.00113431);
    }
    sun
    {
        Cmu             0.09;
        kappa           0.41;
        E               9.8;
        type            epsilonWallFunction;
        value           nonuniform List<scalar> 
14
(
0.000520399
0.000683349
0.000723668
0.000836273
0.000951926
0.00107098
0.00119915
0.00132572
0.00141572
0.00144768
0.00140536
0.00128527
0.00109909
0.000878096
)
;
    }
    heatsource1
    {
        Cmu             0.09;
        kappa           0.41;
        E               9.8;
        type            epsilonWallFunction;
        value           nonuniform List<scalar> 3(9.33614e-05 0.00015922 0.000223913);
    }
    heatsource2
    {
        Cmu             0.09;
        kappa           0.41;
        E               9.8;
        type            epsilonWallFunction;
        value           nonuniform List<scalar> 4(0.000723197 0.000140064 0.000140064 0.0007752);
    }
    Table_master
    {
        Cmu             0.09;
        kappa           0.41;
        E               9.8;
        type            epsilonWallFunction;
        value           nonuniform List<scalar> 9(0.000223058 0.000153246 0.000109089 8.03987e-05 6.11598e-05 4.78562e-05 3.84175e-05 3.16155e-05 2.67468e-05);
    }
    Table_slave
    {
        Cmu             0.09;
        kappa           0.41;
        E               9.8;
        type            epsilonWallFunction;
        value           nonuniform List<scalar> 9(0.000317508 0.000239668 0.000192734 0.000161251 0.000137073 0.000117158 9.9887e-05 8.36734e-05 6.71905e-05);
    }
    inlet
    {
        type            turbulentMixingLengthDissipationRateInlet;
        mixingLength    0.01;
        phi             phi;
        k               k;
        value           uniform 0.000101881;
    }
    outlet
    {
        type            zeroGradient;
    }
}


// ************************************************************************* //
