/*--------------------------------*- C++ -*----------------------------------*=========                 |
  \      /  F ield         | OpenFOAM: The Open Source CFD Toolbox
   \    /   O peration     | Website:  https://openfoam.org
    \  /    A nd           | Version:  6
     \/     M anipulation  |
\*---------------------------------------------------------------------------*/
FoamFile
{
    version     2.0;
    format      ascii;
    class       volScalarField;
    location    "2300";
    object      PMV;
}
// * * * * * * * * * * * * * * * * * * * * * * * * * * * * * * * * * * * * * //

dimensions      [0 0 0 0 0 0 0];

internalField   nonuniform List<scalar> 
459
(
1.654933595310025
1.438832642494783
1.4132768290264495
1.390324579702488
1.3748150078358048
1.36531367841569
1.362469689260212
1.3661623001070848
1.3761895492493759
1.3926348592122637
1.4179843872467246
1.4532749111838799
1.5000632560682448
1.5383028924677524
1.5426022340679588
1.6056420290548443
1.593227259849842
1.5884520191785427
1.5903621371692902
1.592749743942538
1.5951373052585331
1.5939105068385182
1.5895777672807079
1.5885519935576418
1.5894523890674968
1.5909136822366154
1.592810694441549
1.5947869543516746
1.5981366200829115
1.603399047091914
1.6123345166955496
1.6209200066429017
1.6242618028618436
1.6357186623354003
1.6170126044712163
1.4602741946087279
1.4517906556990088
1.43092726544715
1.4186622346402658
1.4116845386255346
1.4092215486457613
1.4115762276738042
1.415939731043017
1.4245736929561414
1.439030421237992
1.4623616075694328
1.4963117154472512
1.5301815585537657
1.530659296825376
1.530659296825376
1.5292260772631325
1.5692572013512125
1.584154148494124
1.5808112601675823
1.5823538248524653
1.576024070955198
1.5716552990991384
1.570185532613662
1.5707389174916775
1.571861821195483
1.5721862524466748
1.5728141618279088
1.5730583566498666
1.5739247609972995
1.5745326918541216
1.5770498497879955
1.5847258979420813
1.6022997141132813
1.608029340828609
1.5997300799272876
1.6594997121661652
1.4626139131567173
1.4876847988309383
1.4781267377917717
1.475542273106294
1.4751054457459487
1.476439132060719
1.4771650118482087
1.4732832492009449
1.4662065753724942
1.4633016428029852
1.4687203616883227
1.4862224804839745
1.5169700635535726
1.5282705896540805
1.530659296825376
1.5316147686125323
1.4794485619732145
1.520867055779362
1.533840319181059
1.5429112244409873
1.5524995012419192
1.5589136882861474
1.562275807138515
1.569723601346901
1.575225618819478
1.5777114565973056
1.5787583342211404
1.5792492087375771
1.5791748859727395
1.577735251106592
1.572902637344134
1.5747610768183056
1.5923583982131797
1.5844809441894723
1.538119276287466
1.7354694061663114
1.4686231813227304
1.5155007614111438
1.5254772306433448
1.5432884190076075
1.5586490516893108
1.5709366823046818
1.5670662840207137
1.5419154533487245
1.506081224635559
1.4756710090602296
1.4595529030491547
1.4620343586102214
1.4821146554709919
1.513542265889728
1.5316147686125323
1.5179335566874783
1.476946395903534
1.4758141016094561
1.5032215751015392
1.5293234272965222
1.5505214817880422
1.568611571808298
1.5820573513718261
1.5867517224749916
1.585190059337043
1.584106339270092
1.5846399581907153
1.5859025456058118
1.589147314149342
1.5957906616303503
1.6073704935371071
1.6296517215408177
1.6225817988235274
1.6073862558973058
1.5647566721177724
1.4944546277658581
1.8253380241092088
1.4887560813561118
1.5425374652538495
1.5713027975835563
1.6187263409439996
1.6726937128454915
1.6982330588906864
1.6543674265308324
1.5837161537298872
1.514545112038534
1.4646417976045019
1.4370668798422666
1.433348202762091
1.4495525719041937
1.4784908426203625
1.5052085908485824
1.5127507869023022
1.5096382099283767
1.5181609384439787
1.5423805696416033
1.5720785533558808
1.5984828320308404
1.620838809617363
1.637150689654059
1.6457424740539417
1.6487681626988189
1.6491865075071401
1.6482475945606585
1.6471308831528346
1.6449596039939736
1.644669245446337
1.6455473124482527
1.6468449285176794
1.6329910825930436
1.6064879216928412
1.5473076877769874
1.5405356898697422
1.6696050468958556
1.6570277649556548
1.4942991324432031
1.9148436911886464
1.5316551041300763
1.595024344741214
1.6246889750629478
1.6929851866143708
1.7216065745024134
1.7136485537412212
1.63482998025772
1.557539063212967
1.4867009471025028
1.4331200820213994
1.4057954475011758
1.4052163421323336
1.4278622387755269
1.4648215536022333
1.5052266815936706
1.536489971963575
1.5585092543833305
1.582490040681165
1.6129737108213162
1.629990374314119
1.6443105554377608
1.6562426476675718
1.665310170501029
1.6729453867346766
1.6786714379433727
1.682965770853524
1.6858285607461205
1.6867828063978834
1.6858285607461205
1.682488631507109
1.6772399543837022
1.6692962684471873
1.6435003132781998
1.6092365241750186
1.5470322475673413
1.5444847162278827
1.5594547287787663
1.55862860420071
1.571298403306199
2.004122263736992
1.6272569607154976
1.7466421393544287
1.720043299974426
1.7167963168278557
1.6920002541200398
1.6403005203197298
1.5685759010522455
1.490339686734187
1.4221932179666306
1.3779196019081128
1.364855673195064
1.3816223937957672
1.4228568573387048
1.4795608437944314
1.5411912425381267
1.5831990464397834
1.606596959385679
1.6276035037915622
1.6462197761938557
1.6619695923971767
1.6748541050724834
1.6848743062601008
1.6925080938283654
1.6977559908727293
1.7020495213232123
1.704434736245086
1.7058658376984432
1.7049117723588885
1.7025265688806266
1.6968018480515075
1.6901225963617836
1.6815343462355339
1.6699268728761487
1.629614786673224
1.5717068361262823
1.5494906331898821
1.5385378801815857
1.5128183539885733
1.5974576821960027
2.136388083997261
1.9460342544144138
1.9018268013573802
1.8022155403292668
1.7442455092353104
1.6642638520660218
1.5622078271548538
1.456936066525422
1.369285860630603
1.314366835620729
1.2999164975116142
1.324122882699866
1.378623148889345
1.4547456214011432
1.5435538019706634
1.5870194117634333
1.6199651903149084
1.6457424740539417
1.6662646023569685
1.6815343462355339
1.6939393654617765
1.703480657140294
1.7101590176362897
1.7154059822416257
1.718744812228636
1.7206526632134151
1.7211296200433865
1.7206526632134151
1.718744812228636
1.7154059822416257
1.7106360260609428
1.7025265688806266
1.6948935353286625
1.6848743062601008
1.6743769287224302
1.663401281389791
1.6439148755861641
1.6324286427277035
1.5713287242041574
1.4863825404242754
2.333568463035447
2.201523490967177
2.0360718128329682
1.8558326166765786
1.6536890137522176
1.4413718839157512
1.2719164935408531
1.166402419848868
1.1304439349990392
1.1558306125700875
1.2283553856428207
1.3337221483180888
1.4546255545852795
1.5397360209095112
1.5946597966431815
1.638582698990666
1.667219025724341
1.6867828063978834
1.7010954193641836
1.7120670373951796
1.7201757040146863
1.7226062232373027
1.7213048410074068
1.7198814955505266
1.7169837265091175
1.7134913474503406
1.7085352168688206
1.7018737101412535
1.6941900034749466
1.6845020128476589
1.6729052320966955
1.6606151512445748
1.6493526304883301
1.6350399847034969
1.6188584284505438
1.6050314041488378
1.5954012988212911
1.590224891001605
1.5796834689233656
1.5492274487981545
-2.9705225049004325
-1.8145198652826888
-1.1274534233853468
-0.3883908590720398
0.16730650360204288
0.5991088095503088
0.9492073973211784
1.2136468939032716
1.376754796297887
1.5015144266634257
1.5765131334063802
1.6276035037915622
1.6515003175641723
1.6674391533470054
1.679375242291599
1.6881416807496583
1.6934178496197534
1.6964911871800932
1.6973033779533133
1.6961741985902927
1.6940991359201618
1.6909381470467655
1.6869944297270265
1.6826086073387612
1.6772785742366183
1.6716144092716358
1.665881318136173
1.6609255784210748
1.6566565381698986
1.653984052360645
1.652275503544035
1.650708889221266
1.650326422808201
1.6523532762815543
1.6623583048340551
1.697778228061012
1.7695240427011603
1.6126582845250634
-2.4608659534037827
-0.9957692546461046
0.04312400932456832
0.5723410403568329
0.8981222683871227
1.100569321777823
1.2543329962029328
1.3729898000597875
1.4650509279860109
1.533707547797275
1.5805979183110908
1.6132613676421157
1.636149757405568
1.6525641964138593
1.6638023644538082
1.671083650116142
1.675880306807424
1.6788423994163366
1.6802977862773958
1.6806637205162
1.6807397980529164
1.679991520015474
1.6788984596259966
1.677479242257708
1.6753223783237368
1.673563707996895
1.6719768660491607
1.6710316187630079
1.671323910462849
1.6747538435974676
1.6821890490614935
1.693075899591807
1.7050172178533767
1.7151401693405812
1.727008483031008
1.7653493083876488
1.7000862459809987
1.6511652494794875
-0.8622971270478502
-1.001246783670163
-0.8811160708969357
0.36617271472456975
0.8806623007269945
1.0974638737266782
1.2310985192067319
1.3342523784800149
1.4171925376737045
1.48508329436945
1.5399463760515486
1.5818281574838258
1.6122706798021176
1.6332842373174996
1.6468033993961053
1.654570647433286
1.6581975270063998
1.65944869058697
1.6590065273335932
1.6584132377395824
1.6579805749925922
1.6576996998412987
1.6577991925231848
1.6582328823355497
1.658465146455224
1.6590175492931944
1.660502886342707
1.662153550937384
1.6648623599880557
1.669635351802296
1.676645379771668
1.688163235510464
1.7095489503409822
1.7478255836514782
1.7754865889558413
1.7816830790080742
1.7484217179979527
1.7064566265370882
1.6650514348623195
1.669988506226962
)
;

boundaryField
{
    ".*"
    {
        type            zeroGradient;
    }
}


// ************************************************************************* //
