// -*- C++ -*-
// File generated by PyFoam - sorry for the ugliness

FoamFile
{
 version 2.0;
 format ascii;
 class volVectorField;
 location "2300";
 object U;
}

dimensions [ 0 1 -1 0 0 0 0 ];

internalField nonuniform List<vector> 459
(
  (0.0336427 0.0881457 0)
  (-0.171491 0.0263775 0)
  (-0.196505 0.0178305 0)
  (-0.227172 0.011904 0)
  (-0.248819 0.0054124 0)
  (-0.260486 -0.00138266 0)
  (-0.260727 -0.00849077 0)
  (-0.248846 -0.015876 0)
  (-0.225758 -0.0228137 0)
  (-0.193463 -0.0282105 0)
  (-0.15537 -0.0312292 0)
  (-0.11523 -0.0315811 0)
  (-0.0765965 -0.0296237 0)
  (-0.0445396 -0.0267993 0)
  (-0.0341703 -0.0249066 0)
  (-0.00247559 0.00859289 0)
  (-0.0276394 -0.0196959 0)
  (-0.00184783 -0.0295652 0)
  (0.0223653 -0.0219848 0)
  (0.0397386 -0.0148243 0)
  (0.0528388 -0.00948394 0)
  (0.0606829 -0.00563689 0)
  (0.0645924 -0.00362284 0)
  (0.0663174 -0.00276 0)
  (0.0671775 -0.00234613 0)
  (0.067704 -0.002077 0)
  (0.0679697 -0.00185753 0)
  (0.067908 -0.00159389 0)
  (0.0673029 -0.00110686 0)
  (0.0655647 6.55143e-08 0)
  (0.0614419 0.00227674 0)
  (0.053586 0.0046459 0)
  (0.0465249 0.00655051 0)
  (-0.0145726 0.0228956 0)
  (0.210178 0.180129 0)
  (-0.15872 0.0694577 0)
  (-0.157149 0.0528359 0)
  (-0.188529 0.0403355 0)
  (-0.209755 0.0263116 0)
  (-0.221499 0.0108246 0)
  (-0.222273 -0.00622779 0)
  (-0.21136 -0.0239793 0)
  (-0.190244 -0.0400099 0)
  (-0.161247 -0.0518928 0)
  (-0.127823 -0.0580416 0)
  (-0.0934167 -0.0581739 0)
  (-0.0611766 -0.0528934 0)
  (-0.0345514 -0.0437512 0)
  (-0.0178486 -0.0326135 0)
  (-0.0041638 -0.0145958 0)
  (-0.00437297 0.0171656 0)
  (0.0732545 0.0361339 0)
  (0.0318771 -0.0207053 0)
  (0.0394662 -0.0339071 0)
  (0.0515061 -0.0292092 0)
  (0.0609222 -0.0203395 0)
  (0.0673136 -0.0121018 0)
  (0.0699419 -0.00499325 0)
  (0.0703436 -0.00104794 0)
  (0.0702334 0.000605118 0)
  (0.07031 0.00134436 0)
  (0.070487 0.00179232 0)
  (0.070613 0.00216689 0)
  (0.0706382 0.00264657 0)
  (0.0705097 0.00359579 0)
  (0.0696632 0.00597045 0)
  (0.0655142 0.0125861 0)
  (0.0550913 0.018047 0)
  (0.0505497 0.0216126 0)
  (-0.0558152 0.0493587 0)
  (0.371495 0.269048 0)
  (-0.17392 0.11009 0)
  (-0.117506 0.0850197 0)
  (-0.147369 0.0629215 0)
  (-0.165874 0.0399395 0)
  (-0.176255 0.0149216 0)
  (-0.176028 -0.012573 0)
  (-0.164279 -0.0406629 0)
  (-0.143662 -0.0650747 0)
  (-0.117093 -0.0821602 0)
  (-0.0880915 -0.0899816 0)
  (-0.0593479 -0.0888277 0)
  (-0.0329324 -0.0798008 0)
  (-0.0109308 -0.0647231 0)
  (0.00552366 -0.0441939 0)
  (0.0169498 -0.0186461 0)
  (0.0229881 0.0180422 0)
  (0.120559 -0.0380888 0)
  (0.0791664 -0.0450513 0)
  (0.073416 -0.0426218 0)
  (0.0755068 -0.0349567 0)
  (0.0771174 -0.0253634 0)
  (0.0781924 -0.0170896 0)
  (0.0766012 -0.0135996 0)
  (0.0720868 -0.00951834 0)
  (0.0689415 -0.00730015 0)
  (0.0675677 -0.00602951 0)
  (0.0670128 -0.0052163 0)
  (0.0667644 -0.00464696 0)
  (0.0668434 -0.00411122 0)
  (0.0677452 -0.00322751 0)
  (0.0707417 7.84592e-05 0)
  (0.0683777 0.018159 0)
  (0.0536697 0.0306496 0)
  (0.0572057 0.0387368 0)
  (-0.0926463 0.0764299 0)
  (0.516358 0.340334 0)
  (-0.206969 0.145984 0)
  (-0.0763823 0.11204 0)
  (-0.103667 0.0816598 0)
  (-0.116396 0.0518966 0)
  (-0.12249 0.0187677 0)
  (-0.117606 -0.0190572 0)
  (-0.102737 -0.0574498 0)
  (-0.08226 -0.0889305 0)
  (-0.0592108 -0.109463 0)
  (-0.0366542 -0.117511 0)
  (-0.0157304 -0.114628 0)
  (0.00313727 -0.102144 0)
  (0.0188858 -0.0828133 0)
  (0.0325145 -0.058922 0)
  (0.0474046 -0.0317682 0)
  (0.0700998 -0.0019168 0)
  (0.102576 0.0125335 0)
  (0.108643 -0.0296008 0)
  (0.0929997 -0.0389996 0)
  (0.0836551 -0.0362796 0)
  (0.0791348 -0.0305661 0)
  (0.0761085 -0.0231274 0)
  (0.0746109 -0.0140882 0)
  (0.0767221 -0.00838014 0)
  (0.0818599 -0.00646792 0)
  (0.0861171 -0.0053551 0)
  (0.088947 -0.00447055 0)
  (0.0905665 -0.00338402 0)
  (0.0903212 -0.00182662 0)
  (0.0871341 0.000406141 0)
  (0.0797524 0.00361169 0)
  (0.065162 0.0083937 0)
  (0.0528371 0.0297884 0)
  (0.0401191 0.047177 0)
  (0.0607343 0.0601875 0)
  (-0.135867 0.0995802 0)
  (0.640478 0.395434 0)
  (-0.247536 0.175218 0)
  (-0.036714 0.126984 0)
  (-0.0580098 0.091717 0)
  (-0.062158 0.0578848 0)
  (-0.0599691 0.0183173 0)
  (-0.0435895 -0.0295045 0)
  (-0.0244388 -0.075484 0)
  (-0.00588251 -0.109846 0)
  (0.0107203 -0.130123 0)
  (0.0234142 -0.135515 0)
  (0.0334696 -0.12977 0)
  (0.0412353 -0.115263 0)
  (0.0475887 -0.0946394 0)
  (0.0537356 -0.0705807 0)
  (0.0615762 -0.046221 0)
  (0.0738162 -0.0275093 0)
  (0.0846313 -0.0260261 0)
  (0.0856886 -0.0345033 0)
  (0.0785852 -0.0346565 0)
  (0.069945 -0.0305028 0)
  (0.0633209 -0.0254043 0)
  (0.0586726 -0.0197352 0)
  (0.056277 -0.0135274 0)
  (0.0566789 -0.00772417 0)
  (0.0594731 -0.00496811 0)
  (0.0625167 -0.00385456 0)
  (0.0653553 -0.00280864 0)
  (0.0678242 -0.000800617 0)
  (0.0694451 0.00265905 0)
  (0.0689664 0.00759527 0)
  (0.0658618 0.0141421 0)
  (0.0594433 0.0230209 0)
  (0.0517784 0.0394423 0)
  (0.0401714 0.0589887 0)
  (0.0683425 0.0802545 0)
  (-0.0352083 0.111993 0)
  (0.0476334 0.0269061 0)
  (-0.0688445 -0.0376217 0)
  (-0.286122 -0.0612299 0)
  (0.729687 0.441146 0)
  (-0.286743 0.194484 0)
  (-0.00697953 0.121233 0)
  (-0.0098364 0.0896393 0)
  (-0.0010227 0.0547102 0)
  (0.0184451 0.00631305 0)
  (0.0483098 -0.0491089 0)
  (0.0680366 -0.0933416 0)
  (0.0804008 -0.123201 0)
  (0.0860671 -0.13863 0)
  (0.0863594 -0.140899 0)
  (0.0830845 -0.132581 0)
  (0.0777297 -0.116473 0)
  (0.0718706 -0.0954806 0)
  (0.0669534 -0.0723746 0)
  (0.0642453 -0.0501863 0)
  (0.0644822 -0.0329889 0)
  (0.0646131 -0.0257776 0)
  (0.0607136 -0.0254813 0)
  (0.0529615 -0.0250428 0)
  (0.0444609 -0.0226333 0)
  (0.0376242 -0.0193728 0)
  (0.0329472 -0.015791 0)
  (0.0306792 -0.0120394 0)
  (0.030893 -0.00890781 0)
  (0.0330894 -0.00774202 0)
  (0.036178 -0.00747675 0)
  (0.039717 -0.00676747 0)
  (0.0434736 -0.00455719 0)
  (0.0472403 3.61277e-06 0)
  (0.0501615 0.00692763 0)
  (0.0514185 0.0157927 0)
  (0.0513587 0.0269088 0)
  (0.0515494 0.0421893 0)
  (0.0491987 0.0612261 0)
  (0.0765208 0.0858711 0)
  (0.0488222 0.104744 0)
  (0.0976133 0.0694951 0)
  (0.122241 0.0452756 0)
  (-0.138066 -0.00975328 0)
  (0.786276 0.482956 0)
  (-0.304545 0.178998 0)
  (0.0238571 0.0651204 0)
  (0.0574462 0.0553024 0)
  (0.0834655 0.0300614 0)
  (0.127043 -0.0234876 0)
  (0.155708 -0.0719071 0)
  (0.169644 -0.106518 0)
  (0.170807 -0.127109 0)
  (0.161833 -0.135013 0)
  (0.145849 -0.132022 0)
  (0.12596 -0.12056 0)
  (0.10486 -0.103388 0)
  (0.0847971 -0.0831655 0)
  (0.0673772 -0.0621189 0)
  (0.0535917 -0.0426803 0)
  (0.0436821 -0.0278017 0)
  (0.0360572 -0.0198992 0)
  (0.0284464 -0.0174703 0)
  (0.0203135 -0.0166827 0)
  (0.0127877 -0.0154872 0)
  (0.00694442 -0.013995 0)
  (0.00309588 -0.0124792 0)
  (0.00136709 -0.0110657 0)
  (0.00169454 -0.0102235 0)
  (0.00357014 -0.0104313 0)
  (0.00630016 -0.0109709 0)
  (0.00962677 -0.0108778 0)
  (0.0135872 -0.00921602 0)
  (0.0183112 -0.00490843 0)
  (0.0250195 0.00294975 0)
  (0.0308129 0.0126972 0)
  (0.0364147 0.0239089 0)
  (0.0437941 0.0374575 0)
  (0.0512064 0.0529854 0)
  (0.0763504 0.073012 0)
  (0.0887199 0.0801015 0)
  (0.125502 0.0519355 0)
  (0.167985 0.0427561 0)
  (-0.0316094 0.0967715 0)
  (0.894203 0.482532 0)
  (-0.0566882 0.157478 0)
  (0.119246 -0.0234425 0)
  (0.206944 -0.0591285 0)
  (0.252356 -0.0721333 0)
  (0.277591 -0.0888136 0)
  (0.286756 -0.104352 0)
  (0.279209 -0.114296 0)
  (0.257097 -0.11747 0)
  (0.224662 -0.114056 0)
  (0.186608 -0.104872 0)
  (0.14706 -0.0911569 0)
  (0.109334 -0.0747384 0)
  (0.0757738 -0.0574135 0)
  (0.0476335 -0.0404296 0)
  (0.0256985 -0.025523 0)
  (0.0100715 -0.0150373 0)
  (-0.000783044 -0.009967 0)
  (-0.00885966 -0.00890561 0)
  (-0.015618 -0.00916629 0)
  (-0.0212303 -0.00944 0)
  (-0.0254946 -0.00964353 0)
  (-0.0283906 -0.00989676 0)
  (-0.0299513 -0.0103118 0)
  (-0.0303356 -0.0110762 0)
  (-0.0299392 -0.0122414 0)
  (-0.0291587 -0.0134355 0)
  (-0.0280897 -0.01416 0)
  (-0.0265399 -0.0138979 0)
  (-0.0240563 -0.012037 0)
  (-0.0194834 -0.00778358 0)
  (-0.00892453 -0.000469193 0)
  (-0.00060392 0.00836058 0)
  (0.0106616 0.0170238 0)
  (0.0222601 0.024686 0)
  (0.0434811 0.0333493 0)
  (0.0619196 0.025412 0)
  (0.0806259 -0.00575295 0)
  (0.14204 0.0452067 0)
  (-0.455903 0.222378 0)
  (1.04645 0.427027 0)
  (0.495719 0.278802 0)
  (0.514767 0.173156 0)
  (0.549816 0.0954431 0)
  (0.530045 0.041861 0)
  (0.482546 -0.000798086 0)
  (0.427616 -0.0321685 0)
  (0.367498 -0.0514045 0)
  (0.302989 -0.0597244 0)
  (0.237464 -0.0595979 0)
  (0.175014 -0.0537116 0)
  (0.118585 -0.0440894 0)
  (0.0704653 -0.0329109 0)
  (0.031203 -0.0218855 0)
  (0.000141268 -0.0119108 0)
  (-0.0210438 -0.00512093 0)
  (-0.0331858 -0.00222125 0)
  (-0.0406735 -0.00175384 0)
  (-0.0460383 -0.00264762 0)
  (-0.0505949 -0.00397788 0)
  (-0.0545627 -0.00530164 0)
  (-0.0579502 -0.00658368 0)
  (-0.0608132 -0.00785558 0)
  (-0.0632732 -0.00914678 0)
  (-0.0655512 -0.0104773 0)
  (-0.0679832 -0.0117597 0)
  (-0.0709119 -0.0127079 0)
  (-0.0746238 -0.0129073 0)
  (-0.0794357 -0.0118346 0)
  (-0.0858348 -0.00881523 0)
  (-0.0945221 -0.00303032 0)
  (-0.10521 0.00606094 0)
  (-0.11619 0.018029 0)
  (-0.133545 0.0331912 0)
  (-0.160981 0.0513258 0)
  (-0.200926 0.0703445 0)
  (-0.257288 0.0849151 0)
  (-0.320638 0.0920585 0)
  (-0.392132 0.0925251 0)
  (-0.660565 0.0868757 0)
  (-0.181868 -0.0199523 0)
  (0.100745 -0.0342974 0)
  (0.177414 -0.0542462 0)
  (0.164677 -0.0470757 0)
  (0.145751 -0.0341731 0)
  (0.121938 -0.0224048 0)
  (0.0901567 -0.0123273 0)
  (0.0544905 -0.00446817 0)
  (0.0197072 0.000915269 0)
  (-0.0130311 0.00441815 0)
  (-0.0368267 0.00560643 0)
  (-0.0541118 0.00554636 0)
  (-0.0652643 0.00445353 0)
  (-0.0712643 0.00231866 0)
  (-0.0746676 -0.000231501 0)
  (-0.0770742 -0.00286431 0)
  (-0.0792866 -0.00552977 0)
  (-0.0817644 -0.00797689 0)
  (-0.0846269 -0.0099044 0)
  (-0.0876559 -0.0113804 0)
  (-0.0908224 -0.0124646 0)
  (-0.094246 -0.0132022 0)
  (-0.0980918 -0.0136146 0)
  (-0.102524 -0.0136215 0)
  (-0.107629 -0.0129809 0)
  (-0.113348 -0.0112951 0)
  (-0.119427 -0.00805204 0)
  (-0.125384 -0.00268865 0)
  (-0.130485 0.00516961 0)
  (-0.134313 0.0158464 0)
  (-0.137353 0.0303613 0)
  (-0.1402 0.0491642 0)
  (-0.143994 0.0711645 0)
  (-0.149381 0.0917051 0)
  (-0.152822 0.0993507 0)
  (-0.134987 0.0721867 0)
  (-0.081451 -0.0315955 0)
  (-0.289027 -0.225855 0)
  (0.0340407 0.198724 0)
  (0.0138919 0.0645589 0)
  (-0.0320405 0.0123489 0)
  (-0.055168 0.0113919 0)
  (-0.0730579 0.0173406 0)
  (-0.0862601 0.021816 0)
  (-0.0951141 0.0255036 0)
  (-0.101882 0.0286031 0)
  (-0.106763 0.0305123 0)
  (-0.110015 0.0309719 0)
  (-0.111456 0.0304723 0)
  (-0.111569 0.0302 0)
  (-0.110598 0.0303918 0)
  (-0.109099 0.0311117 0)
  (-0.107673 0.0325267 0)
  (-0.106601 0.0344654 0)
  (-0.10603 0.0364198 0)
  (-0.106019 0.0377933 0)
  (-0.10648 0.0379588 0)
  (-0.107434 0.0370687 0)
  (-0.108846 0.0356919 0)
  (-0.110693 0.0339883 0)
  (-0.11294 0.0320601 0)
  (-0.115534 0.0300082 0)
  (-0.118365 0.0279462 0)
  (-0.121251 0.025989 0)
  (-0.123898 0.0242202 0)
  (-0.125753 0.0228425 0)
  (-0.12589 0.0233178 0)
  (-0.122978 0.0269839 0)
  (-0.115397 0.0350249 0)
  (-0.101989 0.0485459 0)
  (-0.0831379 0.0673149 0)
  (-0.0601249 0.0862996 0)
  (-0.0360381 0.0970976 0)
  (0.00750808 0.0795151 0)
  (0.1443 0.00335187 0)
  (-0.207521 -0.138714 0)
  (-0.0931015 -0.347412 0)
  (-0.447566 -0.138559 0)
  (-0.334081 0.0448424 0)
  (-0.291358 -0.0446743 0)
  (-0.25031 -0.0515778 0)
  (-0.238804 -0.0443153 0)
  (-0.230721 -0.0373383 0)
  (-0.221407 -0.032946 0)
  (-0.209796 -0.0307614 0)
  (-0.196154 -0.0309083 0)
  (-0.181454 -0.0339421 0)
  (-0.16711 -0.0398738 0)
  (-0.15436 -0.0479556 0)
  (-0.143836 -0.0569293 0)
  (-0.135633 -0.066218 0)
  (-0.129578 -0.0755385 0)
  (-0.125277 -0.0844677 0)
  (-0.122266 -0.0925166 0)
  (-0.120204 -0.0991732 0)
  (-0.118908 -0.103923 0)
  (-0.118351 -0.10641 0)
  (-0.118536 -0.10676 0)
  (-0.11937 -0.105628 0)
  (-0.120682 -0.103247 0)
  (-0.122307 -0.0997927 0)
  (-0.124059 -0.0953586 0)
  (-0.125684 -0.0899374 0)
  (-0.12683 -0.0834002 0)
  (-0.12704 -0.0754638 0)
  (-0.125711 -0.0658876 0)
  (-0.121719 -0.0553303 0)
  (-0.112892 -0.0436178 0)
  (-0.0962577 -0.0302356 0)
  (-0.0697095 -0.0142034 0)
  (-0.0347589 0.00520994 0)
  (0.024786 0.0301749 0)
  (0.0751902 0.0307881 0)
  (0.123772 0.00895625 0)
  (0.176901 -0.0320168 0)
  (-0.177063 -0.100396 0)
)
;

boundaryField
{
  floor
  {
    type noSlip;
  }
  ceiling
  {
    type noSlip;
  }
  sWall
  {
    type noSlip;
  }
  nWall
  {
    type noSlip;
  }
  sideWalls
  {
    type empty;
  }
  glass1
  {
    type noSlip;
  }
  glass2
  {
    type noSlip;
  }
  sun
  {
    type noSlip;
  }
  heatsource1
  {
    type noSlip;
  }
  heatsource2
  {
    type noSlip;
  }
  Table_master
  {
    type noSlip;
  }
  Table_slave
  {
    type noSlip;
  }
  inlet
  {
    type fixedValue;
    value uniform (0.277164 -0.114805 0);
  }
  outlet
  {
    type zeroGradient;
  }
} 	// ************************************************************************* //

