/*--------------------------------*- C++ -*----------------------------------*\
  =========                 |
  \\      /  F ield         | OpenFOAM: The Open Source CFD Toolbox
   \\    /   O peration     | Website:  https://openfoam.org
    \\  /    A nd           | Version:  6
     \\/     M anipulation  |
\*---------------------------------------------------------------------------*/
FoamFile
{
    version     2.0;
    format      ascii;
    class       volScalarField;
    location    "50";
    object      alphat;
}
// * * * * * * * * * * * * * * * * * * * * * * * * * * * * * * * * * * * * * //

dimensions      [1 -1 -1 0 0 0 0];

internalField   nonuniform List<scalar> 
459
(
0.00155581
0.00171493
0.00171894
0.00168134
0.00157506
0.00145071
0.00134613
0.0012689
0.00121358
0.00117179
0.00113911
0.00111255
0.00109095
0.0010744
0.00105956
0.000642175
0.000849598
0.000944473
0.00098815
0.00100322
0.000978087
0.000910607
0.000840575
0.000778574
0.000721527
0.000667937
0.00061697
0.000568349
0.000522483
0.000480461
0.000444047
0.000417096
0.000424547
0.000416988
0.00211093
0.0068741
0.00803316
0.0088298
0.00863885
0.00785908
0.00696559
0.00624213
0.00576611
0.00540338
0.00501659
0.00450989
0.0038545
0.00302378
0.00202018
0.00112197
0.000920469
0.000941713
0.00298067
0.00465632
0.00553182
0.00545783
0.0045831
0.00304884
0.00254779
0.0021583
0.00184119
0.00157628
0.00135615
0.00117572
0.00102996
0.000914471
0.000841236
0.000823421
0.00110579
0.000568017
0.00235486
0.00796849
0.00902488
0.0112669
0.0117246
0.0113029
0.0103517
0.00917058
0.00812768
0.0074313
0.00699395
0.00643195
0.00554287
0.00438036
0.00314288
0.00210304
0.00131181
0.00127993
0.00592067
0.00746572
0.0077056
0.00696262
0.00492477
0.0011046
0.000897291
0.000764878
0.000676669
0.000612464
0.000561661
0.000519588
0.00048483
0.000459436
0.000552256
0.000743903
0.00145578
0.000689381
0.00237368
0.00373598
0.00449128
0.00603992
0.00807677
0.00964702
0.0104374
0.0105427
0.0100891
0.00920234
0.00845383
0.00798029
0.00726833
0.0060789
0.0045861
0.00314969
0.0020926
0.00159617
0.0060965
0.0077151
0.00809956
0.00773151
0.00682932
0.00466071
0.00108469
0.00102331
0.00100658
0.00100525
0.00100962
0.00101121
0.00100033
0.000971711
0.000935609
0.000957051
0.00104901
0.00183745
0.000815179
0.00374748
0.00433691
0.00434344
0.00447123
0.00522065
0.0065497
0.00803173
0.00924683
0.00990146
0.0099015
0.0095997
0.00927179
0.00895618
0.00837996
0.00754071
0.00668061
0.00608252
0.00598378
0.00690387
0.00716688
0.00700157
0.00664216
0.00628879
0.00594098
0.0052236
0.00519066
0.0052312
0.00528029
0.00529684
0.00524663
0.00509556
0.00473484
0.00405802
0.00329689
0.00265254
0.00234431
0.00156455
0.00096612
0.00101067
0.0011746
0.00439589
0.00554507
0.00540144
0.00504135
0.00510428
0.00579616
0.00696348
0.008239
0.0092192
0.00968456
0.00974922
0.00978932
0.00982361
0.00954077
0.00890104
0.00803211
0.00713982
0.0064191
0.00597568
0.00562767
0.00535492
0.00519183
0.00529451
0.00572971
0.00609393
0.00640377
0.00662093
0.00674103
0.00676321
0.00669469
0.00654769
0.00632075
0.00585872
0.00514942
0.00433291
0.0034689
0.00264601
0.00202421
0.00241055
0.00128844
0.00468793
0.00656031
0.00657466
0.0055443
0.00532012
0.0057158
0.00665076
0.00780554
0.00878428
0.00934283
0.00952441
0.00961173
0.00983677
0.0100054
0.00959719
0.00872613
0.00753597
0.00626767
0.00517716
0.00442586
0.00400763
0.00389409
0.00425451
0.00514651
0.00588861
0.00640457
0.00671552
0.00685227
0.00685558
0.00677294
0.00665068
0.00653302
0.00641463
0.00605756
0.00545752
0.00472929
0.00405439
0.00363481
0.00331668
0.00160517
0.00502594
0.00653695
0.00700087
0.00589576
0.00567076
0.00595974
0.00677782
0.00778946
0.00865748
0.0091624
0.00932491
0.00935383
0.00947872
0.00973096
0.00979175
0.0092697
0.00818272
0.00673541
0.00519051
0.00394794
0.00317927
0.00293158
0.00342206
0.00472419
0.00569731
0.00625179
0.00649594
0.00653446
0.00645887
0.00634084
0.00623958
0.00620959
0.00629143
0.00638927
0.00615029
0.0059773
0.0060293
0.0060281
0.00628455
0.00212052
0.00548288
0.0064166
0.00885373
0.00631488
0.00624953
0.0067455
0.00727518
0.00810572
0.0088558
0.00923621
0.00930821
0.00922837
0.00917738
0.00924568
0.00936271
0.00920001
0.00858112
0.0074642
0.00584734
0.00414813
0.0028275
0.00229962
0.00280447
0.00446155
0.00565736
0.00614583
0.00620732
0.0060648
0.00584765
0.005613
0.00538413
0.00516973
0.00496018
0.00475505
0.004557
0.00433645
0.00401585
0.00358925
0.00319665
0.00195224
0.0121243
0.00675328
0.00648696
0.00775836
0.00812161
0.00869055
0.00924224
0.00944981
0.00933597
0.00906896
0.00878615
0.00857478
0.00845184
0.00832646
0.00799591
0.00734443
0.00628201
0.00474969
0.00285676
0.00191553
0.00232139
0.004132
0.00561905
0.00604755
0.005898
0.00561436
0.00534669
0.00509816
0.00485754
0.00464373
0.00449126
0.00437281
0.0042145
0.00395645
0.00354053
0.00298121
0.00238651
0.00152124
0.00438553
0.004512
0.00694482
0.00772346
0.00816634
0.00854256
0.00877965
0.00868978
0.00828605
0.00778943
0.00728946
0.00684719
0.00648764
0.00622846
0.00593686
0.00556315
0.00498492
0.00402184
0.00267634
0.0016523
0.00185049
0.00336504
0.00469243
0.00504796
0.00487893
0.00464861
0.00450231
0.0044211
0.00436059
0.00430887
0.00432576
0.00436575
0.0043672
0.00426632
0.00403162
0.00369944
0.00306526
0.00154533
0.00222397
0.0025366
0.00282052
0.00203417
0.00213415
0.00226891
0.00234343
0.00234991
0.00229055
0.00214367
0.00201945
0.00190235
0.00179405
0.00169563
0.00160736
0.00152853
0.00146239
0.00140372
0.00134556
0.00127924
0.00120162
0.00112074
0.00107434
0.00113921
0.00118496
0.00120028
0.00120175
0.00120845
0.00122796
0.00126138
0.00131035
0.00137673
0.00145415
0.0015418
0.00163467
0.0017265
0.00177989
0.00172993
0.00159055
0.00145791
)
;

boundaryField
{
    floor
    {
        type            compressible::alphatWallFunction;
        Prt             0.85;
        value           nonuniform List<scalar> 
29
(
0.000150618
9.05884e-05
0.000120828
0.000134348
0.000140523
0.000142652
0.000139114
0.00012955
0.000119535
0.000110584
0.000102271
9.43879e-05
8.68182e-05
7.95254e-05
7.25762e-05
6.61455e-05
6.05208e-05
5.6329e-05
5.75196e-05
5.63513e-05
5.63505e-05
7.95417e-05
9.76139e-05
0.000115946
0.000150617
9.05873e-05
0.000134022
0.00018105
0.000223785
)
;
    }
    ceiling
    {
        type            compressible::alphatWallFunction;
        Prt             0.85;
        value           nonuniform List<scalar> 
43
(
0.000306226
0.0003462
0.000382055
0.000281675
0.000294644
0.00031202
0.000321582
0.000322411
0.000314801
0.000295869
0.000279753
0.000264463
0.00025023
0.000237214
0.000225468
0.000214919
0.000206019
0.000198085
0.000190174
0.000181103
0.000170426
0.000159226
0.000152789
0.000161819
0.000168161
0.000170285
0.000170488
0.000171404
0.000174082
0.000178668
0.000185366
0.000194404
0.000204885
0.000216678
0.00022909
0.000241286
0.000248346
0.000241743
0.000223203
0.000205396
0.000704139
0.000812892
0.000573891
)
;
    }
    sWall
    {
        type            compressible::alphatWallFunction;
        Prt             0.85;
        value           uniform 0.000305104;
    }
    nWall
    {
        type            compressible::alphatWallFunction;
        Prt             0.85;
        value           nonuniform List<scalar> 6(0.00016633 0.000181966 0.000224753 0.000213532 0.00021676 0.000205018);
    }
    sideWalls
    {
        type            empty;
    }
    glass1
    {
        type            compressible::alphatWallFunction;
        Prt             0.85;
        value           nonuniform List<scalar> 9(0.000213008 0.000285133 0.000316314 0.000318896 0.000488824 0.000566643 0.000601228 0.000641008 0.000694456);
    }
    glass2
    {
        type            compressible::alphatWallFunction;
        Prt             0.85;
        value           nonuniform List<scalar> 2(0.000290198 0.000268533);
    }
    sun
    {
        type            compressible::alphatWallFunction;
        Prt             0.85;
        value           nonuniform List<scalar> 
14
(
0.000218439
0.000239619
0.000240152
0.000235171
0.000221015
0.000204316
0.000190147
0.000179603
0.000172006
0.000166241
0.000161714
0.000158024
0.000155012
0.000152699
)
;
    }
    heatsource1
    {
        type            compressible::alphatWallFunction;
        Prt             0.85;
        value           nonuniform List<scalar> 3(0.000137707 0.00014393 0.000166789);
    }
    heatsource2
    {
        type            compressible::alphatWallFunction;
        Prt             0.85;
        value           nonuniform List<scalar> 4(0.000159503 0.000131248 0.000131247 0.000185639);
    }
    Table_master
    {
        type            compressible::alphatWallFunction;
        Prt             0.85;
        value           nonuniform List<scalar> 9(0.000157075 0.000127871 0.000108806 9.58858e-05 8.63519e-05 7.87202e-05 7.23352e-05 6.70121e-05 6.30946e-05);
    }
    Table_slave
    {
        type            compressible::alphatWallFunction;
        Prt             0.85;
        value           nonuniform List<scalar> 9(0.000154326 0.000145731 0.00014338 0.000143195 0.000143816 0.000144046 0.000142522 0.000138485 0.000133374);
    }
    inlet
    {
        type            fixedValue;
        value           uniform 1.94e-05;
    }
    outlet
    {
        type            zeroGradient;
    }
}


// ************************************************************************* //
