/*--------------------------------*- C++ -*----------------------------------*\
  =========                 |
  \\      /  F ield         | OpenFOAM: The Open Source CFD Toolbox
   \\    /   O peration     | Website:  https://openfoam.org
    \\  /    A nd           | Version:  6
     \\/     M anipulation  |
\*---------------------------------------------------------------------------*/
FoamFile
{
    version     2.0;
    format      ascii;
    class       volScalarField;
    location    "50";
    object      epsilon;
}
// * * * * * * * * * * * * * * * * * * * * * * * * * * * * * * * * * * * * * //

dimensions      [0 2 -3 0 0 0 0];

internalField   nonuniform List<scalar> 
459
(
0.00084225
0.00112507
0.00113268
0.00105979
0.000871145
0.000680635
0.000543783
0.000455441
0.000398429
0.00035866
0.000329455
0.000306919
0.000289343
0.000276331
0.00026499
5.89459e-05
0.00013638
0.000187272
0.000214465
0.000224452
0.000208027
0.000167887
0.000132059
0.00010494
8.35167e-05
6.62471e-05
5.22006e-05
4.07983e-05
3.16918e-05
2.46434e-05
1.94596e-05
1.61396e-05
1.70458e-05
1.61687e-05
0.0021088
0.00253791
0.00240396
0.00267369
0.0022199
0.00145479
0.000878847
0.000550978
0.000375052
0.000278817
0.00022915
0.000208484
0.000206133
0.00021599
0.000239908
0.000314366
0.000173903
0.000186058
0.000178425
0.000149276
0.000146679
0.000143578
0.000137329
0.000132305
0.000104237
8.27634e-05
6.50851e-05
5.05157e-05
3.88214e-05
2.96674e-05
2.26998e-05
1.76823e-05
1.48517e-05
1.52281e-05
5.47883e-05
4.08647e-05
0.00293604
0.00430465
0.00526271
0.00752589
0.00682273
0.00471381
0.00297634
0.00174763
0.00093462
0.00053178
0.000335994
0.000251928
0.000224954
0.000231404
0.000265772
0.000340392
0.000502403
0.000466372
0.000260574
0.000196687
0.000170146
0.000150702
0.000148211
0.000299796
0.000160691
9.95298e-05
6.89084e-05
5.10894e-05
3.93953e-05
3.11845e-05
2.5333e-05
2.1558e-05
1.96362e-05
2.2886e-05
0.000126294
7.30464e-05
0.00301798
0.00421263
0.00447037
0.00526188
0.00608585
0.00612436
0.00543147
0.00429814
0.0027178
0.00131281
0.000633539
0.00036965
0.00027109
0.000246491
0.000269101
0.00034908
0.00053904
0.000904651
0.000399275
0.000243423
0.000198449
0.000166265
0.000140035
0.000138611
0.000284122
0.000238566
0.000227075
0.000226207
0.000229219
0.000230359
0.00022306
0.000204473
0.000182536
0.00011377
7.75112e-05
0.000203642
0.000120785
0.0119187
0.0109182
0.00858693
0.00678741
0.0058198
0.0054047
0.00506288
0.00450084
0.00360097
0.00253223
0.0012963
0.000611836
0.000366314
0.000273997
0.000239065
0.000229132
0.000235207
0.00024212
0.000208107
0.000188108
0.00017533
0.000159795
0.000140881
0.000130058
0.000139021
0.000134894
0.000137014
0.000144104
0.000153158
0.000160231
0.000161041
0.000153682
0.000144969
0.000127223
0.000107994
0.000155254
0.000161341
0.000201072
0.000229958
0.000361106
0.0192142
0.0169553
0.0115076
0.00783704
0.00587835
0.00494279
0.00444649
0.00399218
0.00334971
0.002534
0.00166354
0.000933424
0.000516672
0.000348849
0.000278048
0.000238036
0.00020751
0.000182741
0.000166737
0.000161775
0.00016218
0.000160619
0.000151566
0.000139615
0.000134026
0.000135095
0.000145325
0.000162403
0.000182417
0.000200366
0.000210281
0.000206441
0.000187777
0.000166161
0.000147985
0.000151805
0.000167264
0.000184154
0.000416091
0.00047629
0.0232638
0.0239818
0.0153627
0.00772461
0.00520791
0.00421933
0.00376659
0.00340711
0.00291203
0.00226846
0.00158737
0.00102538
0.000659356
0.000442468
0.000348324
0.000293982
0.000248751
0.00020628
0.000174869
0.00016015
0.00015865
0.000162669
0.000163998
0.000158799
0.000152669
0.000157487
0.000174511
0.000201497
0.000234185
0.000267881
0.000297398
0.000315251
0.000305338
0.000283964
0.000272695
0.000293995
0.000361371
0.000478536
0.000820893
0.000921514
0.0286144
0.0339643
0.0280008
0.00669116
0.00407625
0.00343505
0.00314571
0.00288007
0.00248451
0.00196764
0.00142782
0.000981641
0.00068342
0.000513917
0.000420315
0.000365933
0.000323663
0.00027429
0.000222776
0.000184784
0.000166376
0.00016693
0.000179541
0.000192734
0.000193313
0.000201589
0.00022196
0.000253496
0.000294642
0.000344971
0.000404758
0.000473898
0.000549888
0.000607581
0.000731941
0.00107414
0.00177746
0.00270754
0.00658471
0.00212835
0.0370912
0.0592444
0.0670093
0.0154082
0.00376032
0.0030606
0.00274405
0.00250463
0.00215205
0.00172096
0.00128724
0.000930576
0.000683541
0.000534918
0.000456504
0.000420239
0.000398501
0.000368597
0.000314567
0.000247684
0.000192762
0.000179905
0.000202014
0.000243928
0.000260988
0.00026928
0.000282529
0.000307221
0.000345975
0.000402025
0.000480898
0.000591198
0.000742947
0.000948381
0.00123257
0.0016295
0.0020678
0.00243144
0.00272948
0.00166418
0.140252
0.0300715
0.00405123
0.00279276
0.00249859
0.00228891
0.00197014
0.00157386
0.00121154
0.000919628
0.000711464
0.000577055
0.000500422
0.0004651
0.000453745
0.00044641
0.000422571
0.00035494
0.000245656
0.000206407
0.000234337
0.000310674
0.000368365
0.000382614
0.000376329
0.000379657
0.000399152
0.000434395
0.000486971
0.000565324
0.000683972
0.000852419
0.00106559
0.00129533
0.00145526
0.00144354
0.0012553
0.000786899
0.0189224
0.00353728
0.00227619
0.00225234
0.00231364
0.00223385
0.00198874
0.00160675
0.00128386
0.00103179
0.000843407
0.000708873
0.000615574
0.000552039
0.000511968
0.000484324
0.00045145
0.000388006
0.000294626
0.000242479
0.000271834
0.000384107
0.000447023
0.000475275
0.000476754
0.000470991
0.000474173
0.00049318
0.000533347
0.000602797
0.000713162
0.000869589
0.0010674
0.00127915
0.00144433
0.001543
0.000980038
0.000824757
0.00247282
0.00366621
0.00504044
0.00189304
0.0021864
0.00262737
0.00289464
0.00291805
0.0027015
0.00221304
0.00184956
0.00154572
0.00129619
0.00109413
0.000931803
0.000801167
0.000701416
0.000620125
0.000545892
0.000468748
0.000388215
0.000314729
0.000276956
0.000330032
0.000371548
0.000386297
0.000387766
0.000394252
0.000413604
0.000448272
0.000502519
0.000582838
0.000686828
0.000818731
0.000975835
0.0011498
0.00126002
0.00115696
0.000899168
0.000692669
)
;

boundaryField
{
    floor
    {
        Cmu             0.09;
        kappa           0.41;
        E               9.8;
        type            epsilonWallFunction;
        value           nonuniform List<scalar> 
29
(
0.00026499
5.89459e-05
0.00013638
0.000187272
0.000214465
0.000224452
0.000208027
0.000167887
0.000132059
0.00010494
8.35167e-05
6.62471e-05
5.22006e-05
4.07983e-05
3.16918e-05
2.46434e-05
1.94596e-05
1.61396e-05
1.70458e-05
1.61687e-05
1.61687e-05
4.08647e-05
7.30464e-05
0.000120785
0.00026499
5.89459e-05
0.000186058
0.000466372
0.000904651
)
;
    }
    ceiling
    {
        Cmu             0.09;
        kappa           0.41;
        E               9.8;
        type            epsilonWallFunction;
        value           nonuniform List<scalar> 
43
(
0.00247282
0.00366621
0.00504044
0.00189304
0.0021864
0.00262737
0.00289464
0.00291805
0.0027015
0.00221304
0.00184956
0.00154572
0.00129619
0.00109413
0.000931803
0.000801167
0.000701416
0.000620125
0.000545892
0.000468748
0.000388215
0.000314729
0.000276956
0.000330032
0.000371548
0.000386297
0.000387766
0.000394252
0.000413604
0.000448272
0.000502519
0.000582838
0.000686828
0.000818731
0.000975835
0.0011498
0.00126002
0.00115696
0.000899168
0.000692669
0.0370912
0.0592444
0.0189224
)
;
    }
    sWall
    {
        Cmu             0.09;
        kappa           0.41;
        E               9.8;
        type            epsilonWallFunction;
        value           uniform 0.00247282;
    }
    nWall
    {
        Cmu             0.09;
        kappa           0.41;
        E               9.8;
        type            epsilonWallFunction;
        value           nonuniform List<scalar> 6(0.000361106 0.00047629 0.000921514 0.000786899 0.000824757 0.000692669);
    }
    sideWalls
    {
        type            empty;
    }
    glass1
    {
        Cmu             0.09;
        kappa           0.41;
        E               9.8;
        type            epsilonWallFunction;
        value           nonuniform List<scalar> 9(0.00084225 0.0021088 0.00293604 0.00301798 0.0119187 0.0192142 0.0232638 0.0286144 0.0370912);
    }
    glass2
    {
        Cmu             0.09;
        kappa           0.41;
        E               9.8;
        type            epsilonWallFunction;
        value           nonuniform List<scalar> 2(0.00212835 0.00166418);
    }
    sun
    {
        Cmu             0.09;
        kappa           0.41;
        E               9.8;
        type            epsilonWallFunction;
        value           nonuniform List<scalar> 
14
(
0.00084225
0.00112507
0.00113268
0.00105979
0.000871145
0.000680635
0.000543783
0.000455441
0.000398429
0.00035866
0.000329455
0.000306919
0.000289343
0.000276331
)
;
    }
    heatsource1
    {
        Cmu             0.09;
        kappa           0.41;
        E               9.8;
        type            epsilonWallFunction;
        value           nonuniform List<scalar> 3(0.000201072 0.000229958 0.000361106);
    }
    heatsource2
    {
        Cmu             0.09;
        kappa           0.41;
        E               9.8;
        type            epsilonWallFunction;
        value           nonuniform List<scalar> 4(0.000314366 0.000173903 0.000173903 0.000502403);
    }
    Table_master
    {
        Cmu             0.09;
        kappa           0.41;
        E               9.8;
        type            epsilonWallFunction;
        value           nonuniform List<scalar> 9(0.000299796 0.000160691 9.95298e-05 6.89084e-05 5.10894e-05 3.93953e-05 3.11845e-05 2.5333e-05 2.1558e-05);
    }
    Table_slave
    {
        Cmu             0.09;
        kappa           0.41;
        E               9.8;
        type            epsilonWallFunction;
        value           nonuniform List<scalar> 9(0.000284122 0.000238566 0.000227075 0.000226207 0.000229219 0.000230359 0.00022306 0.000204473 0.000182536);
    }
    inlet
    {
        type            turbulentMixingLengthDissipationRateInlet;
        mixingLength    0.01;
        phi             phi;
        k               k;
        value           uniform 3.77336e-06;
    }
    outlet
    {
        type            zeroGradient;
    }
}


// ************************************************************************* //
