/*--------------------------------*- C++ -*----------------------------------*\
  =========                 |
  \\      /  F ield         | OpenFOAM: The Open Source CFD Toolbox
   \\    /   O peration     | Website:  https://openfoam.org
    \\  /    A nd           | Version:  6
     \\/     M anipulation  |
\*---------------------------------------------------------------------------*/
FoamFile
{
    version     2.0;
    format      ascii;
    class       volScalarField;
    location    "50";
    object      nut;
}
// * * * * * * * * * * * * * * * * * * * * * * * * * * * * * * * * * * * * * //

dimensions      [0 2 -1 0 0 0 0];

internalField   nonuniform List<scalar> 
459
(
0.00133503
0.00147027
0.00147354
0.00144117
0.00134993
0.00124324
0.00115354
0.0010873
0.00103986
0.00100401
0.000975968
0.000953187
0.000934649
0.000920455
0.000907723
0.000550226
0.000727806
0.000809027
0.000846419
0.000859316
0.000837781
0.000779984
0.000720004
0.000666904
0.000618048
0.000572152
0.000528503
0.000486863
0.000447582
0.000411591
0.000380401
0.000357317
0.000363704
0.000357256
0.00181289
0.00589791
0.00689253
0.00757513
0.00740954
0.00673896
0.00597154
0.00535047
0.00494187
0.00463055
0.00429873
0.00386427
0.0033025
0.00259059
0.00173067
0.000961133
0.000788456
0.000806754
0.00255326
0.0039884
0.00473819
0.00467476
0.00392551
0.00261136
0.00218219
0.00184859
0.00157699
0.00135011
0.00116157
0.00100704
0.000882189
0.000783276
0.000720554
0.000705306
0.000947202
0.000486625
0.00202432
0.00684317
0.00775429
0.00967834
0.0100682
0.00970174
0.00888182
0.00786557
0.00696891
0.00637045
0.00599457
0.00551221
0.00474978
0.00375326
0.00269271
0.00180169
0.00112378
0.0010964
0.00507146
0.0063948
0.00660021
0.00596381
0.00421829
0.000946109
0.000768531
0.000655113
0.000579561
0.000524571
0.000481058
0.000445023
0.000415252
0.000393502
0.000473008
0.000637167
0.00124695
0.000590593
0.00204302
0.00321471
0.00386456
0.00519631
0.00694616
0.00829258
0.00896736
0.00905315
0.00865838
0.00789293
0.00724834
0.00684086
0.00622961
0.0052095
0.00392974
0.00269862
0.00179275
0.00136738
0.00522242
0.00660881
0.00693807
0.00662278
0.00584998
0.00399237
0.000929141
0.000876572
0.000862248
0.000861119
0.000864883
0.000866264
0.000856956
0.00083244
0.000801512
0.000819844
0.00089858
0.00157394
0.000698366
0.00322974
0.00373544
0.00374057
0.00385002
0.00449403
0.00563578
0.00690752
0.00794806
0.00850553
0.00850024
0.00823544
0.00795066
0.0076783
0.00718315
0.00646286
0.00572496
0.00521184
0.00512678
0.00591474
0.00613984
0.00599809
0.00569015
0.00538744
0.00508952
0.00447503
0.00444691
0.00448176
0.00452398
0.00453832
0.00449543
0.00436607
0.00405697
0.00347696
0.00282466
0.00227244
0.00200827
0.00134034
0.000827703
0.00086609
0.00100667
0.00378659
0.00477071
0.00464662
0.00433771
0.00439246
0.00498752
0.00599034
0.00708455
0.00792316
0.00831822
0.00836873
0.00839863
0.00842489
0.00818064
0.00763087
0.0068849
0.0061192
0.00550087
0.00512043
0.00482194
0.00458806
0.00444823
0.00453617
0.00490907
0.00522125
0.00548692
0.00567325
0.00577646
0.00579577
0.00573727
0.00561141
0.00541687
0.00502068
0.00441252
0.00371253
0.002972
0.00226693
0.00173422
0.00206534
0.00110405
0.0040358
0.00563772
0.00565039
0.00476757
0.00457676
0.00491779
0.00572146
0.00671268
0.00755094
0.00802694
0.00817871
0.00824997
0.00844009
0.0085822
0.00823056
0.00748226
0.0064607
0.00537258
0.00443725
0.00379297
0.00343432
0.00333686
0.0036456
0.00440994
0.005046
0.00548843
0.00575528
0.00587288
0.00587607
0.00580549
0.00570079
0.00559985
0.00549803
0.00519153
0.00467683
0.00405242
0.00347394
0.0031144
0.00284188
0.00137552
0.00432411
0.00561591
0.00601563
0.00506987
0.00487814
0.00512741
0.00583057
0.00669892
0.00744247
0.00787306
0.00800927
0.00803118
0.00813605
0.00835056
0.00840093
0.00795147
0.0070178
0.00577552
0.00445004
0.00338428
0.00272507
0.00251257
0.00293271
0.0040486
0.00488276
0.00535835
0.00556806
0.0056015
0.00553703
0.00543605
0.00534928
0.00532348
0.00539338
0.00547678
0.00527147
0.00512287
0.00516735
0.00516647
0.00538653
0.0018185
0.00471477
0.00551125
0.0076042
0.0054304
0.0053758
0.00580287
0.00625794
0.00697061
0.00761293
0.00793703
0.0079962
0.00792537
0.00787983
0.00793702
0.00803603
0.00789498
0.00736256
0.00640303
0.00501502
0.00355705
0.00242425
0.00197139
0.00240379
0.00382401
0.00484918
0.00526832
0.0053215
0.00519969
0.00501378
0.00481272
0.00461651
0.00443267
0.00425299
0.00407716
0.00390748
0.0037187
0.00344426
0.00307883
0.00274239
0.00167526
0.010399
0.00580625
0.00557915
0.00667312
0.00698504
0.0074729
0.00794493
0.00812086
0.00802097
0.00778995
0.00754576
0.0073632
0.00725666
0.00714793
0.00686306
0.00630275
0.00539001
0.00407451
0.00245021
0.00164261
0.00199004
0.003542
0.00481694
0.00518472
0.00505695
0.00481407
0.00458476
0.00437177
0.00416551
0.00398222
0.00385153
0.00375004
0.00361444
0.0033934
0.00303697
0.00255745
0.00204742
0.00130514
0.00376735
0.00387929
0.00597183
0.00664174
0.00702228
0.00734479
0.00754699
0.00746783
0.00711956
0.00669186
0.00626157
0.00588103
0.00557164
0.00534845
0.00509739
0.00477582
0.00427875
0.00345154
0.00229647
0.00141743
0.00158663
0.00288493
0.00402308
0.00432823
0.0041836
0.00398633
0.00386101
0.00379146
0.00373964
0.00369534
0.00370989
0.00374426
0.00374563
0.00365931
0.00345824
0.00317352
0.00262944
0.00132575
0.00191177
0.00217996
0.00242402
0.00174879
0.00183483
0.00195072
0.00201475
0.00202016
0.00196886
0.00184224
0.00173528
0.00163451
0.00154133
0.00145666
0.00138073
0.00131292
0.001256
0.0012055
0.00115542
0.00109834
0.00103154
0.000961839
0.000921393
0.000976827
0.00101611
0.00102931
0.00103062
0.00103641
0.00105316
0.00108184
0.00112385
0.00118079
0.0012472
0.00132239
0.00140206
0.00148087
0.00152673
0.00148392
0.00136437
0.00125074
)
;

boundaryField
{
    floor
    {
        type            nutkWallFunction;
        Cmu             0.09;
        kappa           0.41;
        E               9.8;
        value           nonuniform List<scalar> 
29
(
0.00010983
6.61029e-05
8.81235e-05
9.7967e-05
0.000102463
0.000104011
0.000101434
9.44686e-05
8.71738e-05
8.06544e-05
7.45994e-05
6.88571e-05
6.33427e-05
5.80294e-05
5.29658e-05
4.82795e-05
4.41798e-05
4.11243e-05
4.19926e-05
4.11433e-05
4.11432e-05
5.80467e-05
7.1216e-05
8.45738e-05
0.00010983
6.61029e-05
9.77402e-05
0.000131985
0.000163117
)
;
    }
    ceiling
    {
        type            nutkWallFunction;
        Cmu             0.09;
        kappa           0.41;
        E               9.8;
        value           nonuniform List<scalar> 
43
(
0.000223782
0.000252929
0.000279128
0.000205861
0.000215348
0.00022805
0.000235033
0.000235621
0.000230031
0.000216158
0.000204363
0.000193178
0.00018277
0.000173252
0.000164664
0.00015695
0.00015044
0.000144635
0.000138846
0.00013221
0.000124401
0.0001162
0.000111437
0.000117998
0.000122627
0.000124182
0.000124336
0.000125008
0.000126963
0.000130308
0.000135193
0.000141784
0.000149426
0.000158025
0.000167077
0.000175974
0.000181129
0.000176319
0.0001628
0.000149832
0.000514697
0.000593515
0.000419085
)
;
    }
    sWall
    {
        type            nutkWallFunction;
        Cmu             0.09;
        kappa           0.41;
        E               9.8;
        value           uniform 0.000223839;
    }
    nWall
    {
        type            nutkWallFunction;
        Cmu             0.09;
        kappa           0.41;
        E               9.8;
        value           nonuniform List<scalar> 6(0.000121509 0.000132889 0.000164079 0.000156063 0.000158413 0.000149844);
    }
    sideWalls
    {
        type            empty;
    }
    glass1
    {
        type            nutkWallFunction;
        Cmu             0.09;
        kappa           0.41;
        E               9.8;
        value           nonuniform List<scalar> 9(0.000159657 0.000213234 0.000236426 0.000238469 0.000364378 0.00042171 0.000447064 0.000476196 0.000515366);
    }
    glass2
    {
        type            nutkWallFunction;
        Cmu             0.09;
        kappa           0.41;
        E               9.8;
        value           nonuniform List<scalar> 2(0.000213644 0.000197806);
    }
    sun
    {
        type            nutkWallFunction;
        Cmu             0.09;
        kappa           0.41;
        E               9.8;
        value           nonuniform List<scalar> 
14
(
0.000159464
0.000174773
0.000175143
0.000171498
0.000161168
0.000148988
0.000138656
0.000130968
0.000125429
0.000121224
0.000117923
0.000115231
0.000113034
0.000111347
)
;
    }
    heatsource1
    {
        type            nutkWallFunction;
        Cmu             0.09;
        kappa           0.41;
        E               9.8;
        value           nonuniform List<scalar> 3(0.000100279 0.000104838 0.0001215);
    }
    heatsource2
    {
        type            nutkWallFunction;
        Cmu             0.09;
        kappa           0.41;
        E               9.8;
        value           nonuniform List<scalar> 4(0.000116141 9.55599e-05 9.55599e-05 0.000135176);
    }
    Table_master
    {
        type            nutkWallFunction;
        Cmu             0.09;
        kappa           0.41;
        E               9.8;
        value           nonuniform List<scalar> 9(0.000114358 9.30944e-05 7.92137e-05 6.98074e-05 6.28665e-05 5.73104e-05 5.26619e-05 4.87865e-05 4.59345e-05);
    }
    Table_slave
    {
        type            nutkWallFunction;
        Cmu             0.09;
        kappa           0.41;
        E               9.8;
        value           nonuniform List<scalar> 9(0.000112364 0.000106107 0.000104396 0.000104264 0.000104718 0.000104888 0.000103779 0.00010084 9.71179e-05);
    }
    inlet
    {
        type            calculated;
        value           uniform 3.3541e-05;
    }
    outlet
    {
        type            calculated;
        value           nonuniform List<scalar> 2(0.00191177 0.00217996);
    }
}


// ************************************************************************* //
