/*--------------------------------*- C++ -*----------------------------------*\
  =========                 |
  \\      /  F ield         | OpenFOAM: The Open Source CFD Toolbox
   \\    /   O peration     | Website:  https://openfoam.org
    \\  /    A nd           | Version:  6
     \\/     M anipulation  |
\*---------------------------------------------------------------------------*/
FoamFile
{
    version     2.0;
    format      ascii;
    class       surfaceScalarField;
    location    "50";
    object      phi;
}
// * * * * * * * * * * * * * * * * * * * * * * * * * * * * * * * * * * * * * //

dimensions      [1 0 -1 0 0 0 0];

internalField   nonuniform List<scalar> 
852
(
-0.0033911
0.00345045
-0.00450776
0.00111666
-0.00480367
0.000295908
-0.00484299
3.93203e-05
-0.00483501
-7.96983e-06
-0.00478558
-4.94254e-05
-0.00466873
-0.000116841
-0.00447761
-0.000191099
-0.00420789
-0.000269699
-0.00385917
-0.000348701
-0.00342776
-0.000431383
-0.00290664
-0.000521079
-0.00226213
-0.000644467
-0.00136858
-0.000893509
-0.00136538
-0.000261261
0.00026572
8.13555e-05
-0.000342597
0.000522243
-0.000440873
0.000962181
-0.000439921
0.00142823
-0.000466028
0.00182972
-0.000401474
0.00198566
-0.000155916
0.00198947
-3.80407e-06
0.00194418
4.53072e-05
0.00188104
6.31394e-05
0.00180858
7.24689e-05
0.00173231
7.62659e-05
0.00165473
7.75814e-05
0.00157214
8.25917e-05
0.00146747
0.000104676
0.00131019
0.000157293
0.00109302
0.000217182
0.000829959
0.000263088
0.000835884
-0.00225659
0.00586446
-0.00293081
0.0017909
-0.00286506
0.000230182
-0.00281087
-1.48475e-05
-0.00307297
0.000254152
-0.00343232
0.000309937
-0.00368934
0.000140193
-0.00378013
-0.0001003
-0.00371965
-0.00033016
-0.00355119
-0.000517139
-0.00329131
-0.000691233
-0.00294111
-0.000871249
-0.00248728
-0.00109824
-0.00198522
-0.00139551
-0.00170495
-0.00164558
-0.000240377
-0.00146456
-0.000240392
0.000641909
-0.000365814
0.000505971
-0.000206627
0.000472683
-0.000407555
0.000701092
-0.000668295
0.00106498
-0.000829879
0.00142916
-0.000765607
0.00151071
-0.000237438
0.00150479
2.13842e-06
0.00149374
5.63738e-05
0.00148274
7.41415e-05
0.00147316
8.20579e-05
0.00146633
8.31e-05
0.00146201
8.19144e-05
0.00145718
8.74339e-05
0.00142249
0.000139381
0.00126892
0.000310879
0.000993481
0.000492642
0.000641111
0.000615478
0.00149163
-0.00118424
0.00729431
-0.000401948
0.00100864
0.000703467
-0.000875173
0.000684956
3.73044e-06
6.95663e-05
0.000869613
-0.000775294
0.00115487
-0.00163692
0.00100187
-0.00234632
0.000609125
-0.00276214
8.56783e-05
-0.00291488
-0.000364372
-0.00291693
-0.000689159
-0.0028251
-0.00096304
-0.00267198
-0.00125131
-0.00250894
-0.00155848
-0.00235462
-0.00179982
-0.0018961
-0.00192299
-0.00213641
-0.000456793
0.000104872
-0.0003926
-0.000270765
-0.000160637
-0.000639454
0.000143969
-0.000972828
0.000498859
-0.00118469
0.00108596
-0.00135263
0.000848718
0.000851037
0.000907581
0.000981888
0.00106411
0.00114737
0.00122945
0.00131706
0.00145661
0.00124618
0.000521324
0.000926402
0.000812435
0.000476301
0.00106559
0.00198936
0.00546341
0.00216307
0.00787986
-0.00140771
0.00780087
-0.000796074
0.00679463
0.00101009
0.00537277
0.0022916
0.00378097
0.0027468
0.00215807
0.00262489
0.000601287
0.00216603
-0.000761242
0.00144829
-0.00172852
0.000602927
-0.00221317
-0.000204486
-0.002454
-0.000722178
-0.00262003
-0.00108522
-0.0027779
-0.00140052
-0.00293361
-0.00164401
-0.00308011
-0.00177639
-0.00367584
-0.00154058
-0.00268198
-0.000980034
-0.00184406
-0.000732953
-0.00127015
-0.000844568
-0.000787985
-0.0011215
-0.000388822
-0.00137186
-0.000122308
-0.00145109
-0.000223151
-0.00125168
0.000452961
-0.000676172
0.000905147
-0.000452257
0.00126156
-0.000356493
0.00156202
-0.000300541
0.00181839
-0.000256473
0.0020189
-0.00020061
0.00212369
-0.0001049
0.00206541
5.81638e-05
0.00175855
0.000306738
0.00154041
0.000739488
0.00113505
0.00121781
0.000517021
0.00168364
0.00253309
0.00962629
-0.00712379
0.0125889
-0.00437016
0.0122696
-0.000476559
0.010933
0.00234685
0.00917274
0.00405205
0.00718331
0.00473637
0.00516396
0.00464439
0.00329735
0.00403277
0.001632
0.00311374
0.000152019
0.00208298
-0.000999557
0.000947094
-0.00169235
-2.93557e-05
-0.00209216
-0.000685351
-0.00239219
-0.00110038
-0.00264013
-0.00139593
-0.00285886
-0.00155751
-0.00291596
-0.00148331
-0.00259744
-0.00129838
-0.00209709
-0.00123313
-0.00158059
-0.00136088
-0.00109253
-0.00160936
-0.000636514
-0.00182768
-0.000282628
-0.00180479
-5.91564e-05
-0.001475
0.000312539
-0.00104773
0.000642407
-0.000782004
0.000919884
-0.000633862
0.00116534
-0.000545895
0.0013877
-0.000478757
0.00158247
-0.00039531
0.00172992
-0.000252296
0.00179301
-4.88364e-06
0.00174434
0.000355434
0.00165007
0.00083378
0.00148955
0.00137835
0.00117714
0.00199605
0.00135549
0.00235476
-0.000451834
0.00180719
-0.00119747
0.000745495
-0.00114005
0.00576697
-0.0125037
0.00755791
-0.00616089
0.00786106
-0.000779495
0.00748027
0.00272786
0.00683726
0.00469526
0.00587335
0.00570047
0.0047083
0.00580961
0.00349821
0.00524299
0.00233228
0.00427978
0.00126806
0.00314728
0.000250285
0.0019649
-0.000631645
0.000852588
-0.00126075
-5.61764e-05
-0.00167189
-0.000689127
-0.00199954
-0.0010681
-0.00225299
-0.00130385
-0.00234661
-0.00138946
-0.00223324
-0.00141151
-0.0019647
-0.00150142
-0.00161557
-0.00170972
-0.00121067
-0.00201395
-0.000753438
-0.00228459
-0.00035524
-0.00220272
-0.000126289
-0.00170375
9.7389e-05
-0.00127124
0.000304672
-0.000989136
0.000493003
-0.000822059
0.000671754
-0.000724529
0.000850449
-0.000657356
0.00103302
-0.000577809
0.00121547
-0.000434691
0.00138238
-0.000171764
0.00150761
0.000230223
0.001622
0.000719402
0.00176793
0.00123242
0.00201297
0.00175102
0.00242227
0.00194546
0.00268892
0.00154058
0.00222054
0.0012139
0.00114694
0.000579458
-0.0126334
0.00155332
-0.00713451
0.0029401
-0.00216603
0.00303767
0.00263055
0.00324496
0.0044882
0.00318561
0.00576003
0.00293519
0.0060602
0.00254081
0.00563753
0.00206178
0.00475894
0.00154684
0.00366231
0.000998665
0.00251312
0.000407383
0.0014439
-0.000194693
0.000545964
-0.000701314
-0.000182373
-0.00108825
-0.000680967
-0.00138795
-0.0010039
-0.00158394
-0.00119318
-0.00165137
-0.00134376
-0.00160633
-0.00154611
-0.00146714
-0.00184853
-0.00121413
-0.00226654
-0.00082116
-0.00267711
-0.000440666
-0.00258288
-0.000285918
-0.00185826
-0.000197065
-0.0013599
-0.00012084
-0.00106519
-4.37896e-05
-0.000898957
4.27816e-05
-0.000810977
0.000147
-0.000761479
0.000278586
-0.000709329
0.000450628
-0.000606694
0.000676186
-0.000397305
0.000932563
-2.61548e-05
0.00121298
0.000438979
0.00154739
0.000898011
0.00202616
0.00127223
0.0026669
0.00130473
0.00325461
0.000952874
0.0031188
0.00134972
0.00433217
-0.00278454
-0.00933938
-0.00377566
-0.00614313
-0.00244556
-0.00349586
-0.00148556
0.00167081
-0.000374421
0.0033773
0.000483783
0.00490204
0.00102807
0.0055161
0.00132077
0.00534499
0.00145258
0.00462725
0.00146533
0.00364965
0.00136376
0.00261475
0.00114838
0.00165934
0.000834359
0.00086006
0.000437573
0.000214545
4.34186e-05
-0.000286612
-0.000308007
-0.000652195
-0.000601779
-0.000899073
-0.000839079
-0.00110607
-0.00102197
-0.0013628
-0.00113388
-0.00173615
-0.00110313
-0.00229674
-0.000842935
-0.00293673
-0.000522368
-0.00290305
-0.000479835
-0.00190053
-0.000541722
-0.0012978
-0.000613437
-0.000993291
-0.000669303
-0.000842941
-0.000706162
-0.000774003
-0.00072531
-0.000742254
-0.000722405
-0.000712187
-0.000680966
-0.000648112
-0.000566965
-0.000511301
-0.000331552
-0.000261575
-1.90107e-05
0.000126426
0.000330257
0.000548732
0.000745572
0.000856911
0.00116086
0.000889437
0.00141942
0.000694328
0.000831008
0.00193816
0.00549392
-0.00877379
-0.0149135
-0.00981851
-0.00859055
-0.00563467
-0.00251279
-0.00333033
0.00107319
-0.00176624
0.00333816
-0.000606041
0.00435609
0.000245059
0.00449405
0.000857986
0.00401446
0.00130626
0.00320148
0.00158532
0.00233578
0.00169475
0.00154998
0.00165501
0.000899899
0.00148091
0.000388787
0.00121207
-1.75827e-05
0.000894079
-0.000333934
0.000558978
-0.000563632
0.000204399
-0.000751087
-0.000179697
-0.000978219
-0.000566873
-0.00134845
-0.000837182
-0.00202582
-0.000793279
-0.00297994
-0.00055605
-0.00313984
-0.000646715
-0.0018096
-0.000888944
-0.00105536
-0.00112386
-0.000758198
-0.0013212
-0.000645468
-0.00150115
-0.000593953
-0.00169145
-0.000551903
-0.00191405
-0.000489554
-0.0021876
-0.000374547
-0.00253254
-0.000166355
-0.00296225
0.00016815
-0.003481
0.000645186
-0.00419585
0.00126361
-0.0052868
0.00194791
-0.0069102
0.00251289
-0.00885451
0.0026387
-0.00840689
0.00149059
-0.00254319
-0.00831772
0.000351293
-0.00658452
-0.00424577
-0.00482207
-0.000689053
-0.00322665
0.00174295
-0.00179235
0.00292198
-0.000558402
0.00326027
0.000427902
0.00302829
0.0012265
0.002403
0.00180719
0.00175519
0.00217134
0.00118593
0.00234699
0.000724371
0.00236758
0.000368347
0.00225085
9.93461e-05
0.00202216
-0.000104986
0.00172439
-0.000265539
0.00136898
-0.000395279
0.000926849
-0.000535633
0.000361845
-0.000782938
-0.000261567
-0.00140176
-0.000616749
-0.00262399
-0.000587206
-0.00316889
-0.000817497
-0.00157906
-0.00122249
-0.000650167
-0.00157436
-0.000406168
-0.00184567
-0.000374041
-0.00208939
-0.000350156
-0.00234908
-0.000292161
-0.00263504
-0.000203561
-0.00292575
-8.38153e-05
-0.00317852
8.64365e-05
-0.00338362
0.000373262
-0.00355773
0.000819324
-0.00372226
0.00142819
-0.00388077
0.00210647
-0.00399015
0.00262233
-0.00384812
0.00249673
-0.00240133
4.38551e-05
-0.00485004
-0.00177603
0.00213191
-0.00450834
-0.00151324
-0.00484289
-0.000354299
-0.00391925
0.000819506
-0.00251544
0.00151835
-0.00104237
0.00178737
0.000262074
0.00172399
0.00134169
0.00132351
0.00213922
0.000957797
0.00267723
0.000648048
0.00299557
0.000406172
0.00313926
0.000224827
0.00314228
9.65399e-05
0.00303501
2.53254e-06
0.00284474
-7.49676e-05
0.00258243
-0.000132609
0.00223748
-0.000190276
0.00176494
-0.000309929
0.00103326
-0.000669533
-2.85554e-05
-0.00156133
-0.000839742
-0.00235712
-0.00132638
-0.00109219
-0.00169445
-0.000281913
-0.00196857
-0.000131897
-0.00217105
-0.000171441
-0.00233545
-0.00018568
-0.00248172
-0.00014583
-0.002612
-7.32364e-05
-0.00271702
2.12293e-05
-0.00276236
0.000131806
-0.00268944
0.000300364
-0.00245044
0.000580356
-0.00202346
0.00100125
-0.00141746
0.00150052
-0.000433339
0.00163827
0.00110787
0.00095558
0.00160522
-0.000453442
-0.00314118
-0.00331122
-0.0056798
-0.00354116
-0.0050472
-0.00539472
-0.0045688
-0.00304408
-0.00125008
0.00048116
0.00181304
0.00278003
0.00343807
0.00385503
0.00409145
0.0042004
0.00421621
0.00415541
0.00403794
0.00386391
0.00357158
0.00292145
0.00138248
-0.000947092
-0.0020121
-0.00226799
-0.00237448
-0.00252087
-0.00268185
-0.00280343
-0.00285299
-0.0028088
-0.0026549
-0.00233334
-0.00173274
-0.000712165
0.000806773
0.00246282
0.00343641
0.00300215
)
;

boundaryField
{
    floor
    {
        type            calculated;
        value           nonuniform List<scalar> 
29
(
0
0
0
0
0
0
0
0
0
0
0
0
0
0
0
0
0
0
0
0
-5.90051e-06
-1.46102e-05
-2.14085e-05
-2.66755e-05
-3.14334e-06
-4.4417e-06
-1.03276e-05
-1.38488e-05
-1.372e-05
)
;
    }
    ceiling
    {
        type            calculated;
        value           nonuniform List<scalar> 
43
(
-6.94646e-06
-7.123e-06
-6.50628e-06
-6.99938e-06
-6.58097e-06
-6.2242e-06
-6.17453e-06
-6.45852e-06
-7.09573e-06
-8.21168e-06
-9.03461e-06
-9.82659e-06
-1.06117e-05
-1.14001e-05
-1.2202e-05
-1.3033e-05
-1.38955e-05
-1.48307e-05
-1.58996e-05
-1.72041e-05
-1.89195e-05
-2.16218e-05
-2.67307e-05
-2.70099e-05
-2.58771e-05
-2.52729e-05
-2.49393e-05
-2.46119e-05
-2.41799e-05
-2.36213e-05
-2.2918e-05
-2.20625e-05
-2.11535e-05
-2.02126e-05
-1.92916e-05
-1.83795e-05
-1.77304e-05
-1.79637e-05
-1.91239e-05
-1.98212e-05
-2.14e-06
-3.19103e-06
-4.35643e-06
)
;
    }
    sWall
    {
        type            calculated;
        value           uniform -0.000209659;
    }
    nWall
    {
        type            calculated;
        value           nonuniform List<scalar> 6(-5.7586e-05 -6.64119e-05 -6.64121e-05 -9.44242e-05 -0.000103582 -0.00011916);
    }
    sideWalls
    {
        type            empty;
        value           nonuniform 0();
    }
    glass1
    {
        type            calculated;
        value           nonuniform List<scalar> 9(-5.93488e-05 -0.00015741 -0.000245587 -0.000332128 -0.000339229 -0.000386866 -0.000449499 -0.000509245 -0.000563208);
    }
    glass2
    {
        type            calculated;
        value           nonuniform List<scalar> 2(-0.000330703 -0.000369734);
    }
    sun
    {
        type            calculated;
        value           uniform 0;
    }
    heatsource1
    {
        type            calculated;
        value           nonuniform List<scalar> 3(2.06067e-07 2.06229e-07 2.06238e-07);
    }
    heatsource2
    {
        type            calculated;
        value           nonuniform List<scalar> 4(5.15328e-08 5.17226e-08 0 0);
    }
    Table_master
    {
        type            calculated;
        value           nonuniform List<scalar> 9(-1.54779e-07 -1.54949e-07 -1.54951e-07 -1.54941e-07 -1.54924e-07 -1.54905e-07 -1.54885e-07 -1.54862e-07 -1.54818e-07);
    }
    Table_slave
    {
        type            calculated;
        value           nonuniform List<scalar> 9(1.5486e-07 1.54847e-07 1.54727e-07 1.54622e-07 1.54531e-07 1.5446e-07 1.54424e-07 1.54431e-07 1.54464e-07);
    }
    inlet
    {
        type            calculated;
        value           uniform -0.000623862;
    }
    outlet
    {
        type            calculated;
        value           nonuniform List<scalar> 2(0.00352806 0.00237593);
    }
}


// ************************************************************************* //
