/*--------------------------------*- C++ -*----------------------------------*\
  =========                 |
  \\      /  F ield         | OpenFOAM: The Open Source CFD Toolbox
   \\    /   O peration     | Website:  https://openfoam.org
    \\  /    A nd           | Version:  6
     \\/     M anipulation  |
\*---------------------------------------------------------------------------*/
FoamFile
{
    version     2.0;
    format      ascii;
    class       volScalarField;
    location    "50";
    object      T;
}
// * * * * * * * * * * * * * * * * * * * * * * * * * * * * * * * * * * * * * //

dimensions      [0 0 0 1 0 0 0];

internalField   nonuniform List<scalar> 
459
(
302.21
301.943
301.91
301.88
301.849
301.823
301.802
301.786
301.773
301.761
301.75
301.74
301.732
301.725
301.721
301.761
301.702
301.682
301.674
301.669
301.667
301.668
301.671
301.675
301.679
301.683
301.689
301.694
301.7
301.705
301.709
301.712
301.715
301.739
302.456
302.168
302.174
302.138
302.065
301.986
301.921
301.873
301.838
301.809
301.785
301.764
301.745
301.727
301.709
301.694
301.671
301.709
301.68
301.663
301.655
301.651
301.649
301.646
301.644
301.644
301.645
301.647
301.65
301.652
301.653
301.655
301.658
301.662
301.671
301.716
302.74
302.438
302.591
302.52
302.419
302.284
302.165
302.057
301.963
301.898
301.85
301.814
301.783
301.756
301.73
301.708
301.693
301.673
301.66
301.655
301.653
301.652
301.652
301.643
301.636
301.634
301.633
301.633
301.633
301.633
301.633
301.633
301.637
301.643
301.655
301.707
303.107
303.028
303.023
302.977
302.868
302.721
302.565
302.408
302.225
302.055
301.947
301.882
301.837
301.798
301.763
301.731
301.703
301.686
301.673
301.667
301.664
301.663
301.664
301.665
301.664
301.665
301.668
301.673
301.679
301.685
301.689
301.691
301.69
301.677
301.664
301.661
301.701
303.503
303.317
303.278
303.231
303.143
303.018
302.865
302.694
302.509
302.32
302.11
301.978
301.911
301.862
301.821
301.782
301.747
301.721
301.702
301.692
301.685
301.683
301.683
301.686
301.691
301.697
301.706
301.716
301.727
301.736
301.741
301.74
301.732
301.716
301.695
301.678
301.691
301.703
301.779
301.808
303.337
302.972
302.937
302.998
303.04
303.019
302.936
302.806
302.644
302.466
302.285
302.122
302.009
301.946
301.898
301.852
301.81
301.775
301.749
301.731
301.719
301.712
301.71
301.712
301.72
301.731
301.745
301.761
301.776
301.788
301.794
301.791
301.777
301.755
301.729
301.705
301.698
301.7
301.718
301.752
303.155
302.618
302.636
302.807
302.937
302.977
302.937
302.837
302.699
302.544
302.387
302.251
302.142
302.053
301.997
301.945
301.896
301.851
301.814
301.786
301.765
301.751
301.742
301.743
301.753
301.769
301.789
301.809
301.828
301.841
301.846
301.841
301.823
301.797
301.768
301.741
301.727
301.724
301.73
301.76
302.961
302.518
302.577
302.805
302.914
302.954
302.92
302.834
302.714
302.581
302.451
302.34
302.253
302.181
302.116
302.057
302.002
301.949
301.899
301.858
301.827
301.802
301.779
301.775
301.788
301.81
301.834
301.857
301.875
301.886
301.889
301.884
301.869
301.843
301.816
301.797
301.792
301.801
301.816
301.98
302.795
302.442
302.429
302.805
302.895
302.918
302.89
302.814
302.706
302.595
302.492
302.407
302.34
302.284
302.23
302.176
302.122
302.064
302.003
301.949
301.906
301.866
301.817
301.808
301.822
301.848
301.875
301.897
301.912
301.92
301.923
301.922
301.921
301.925
301.936
301.963
302.006
302.05
302.086
302.165
302.01
302.739
302.84
302.863
302.841
302.781
302.691
302.598
302.52
302.457
302.407
302.364
302.324
302.279
302.229
302.176
302.119
302.063
302.007
301.948
301.857
301.839
301.853
301.879
301.905
301.925
301.939
301.947
301.953
301.957
301.962
301.969
301.983
302.006
302.037
302.066
302.085
302.097
302.476
302.734
302.778
302.794
302.781
302.739
302.673
302.596
302.54
302.495
302.458
302.426
302.394
302.36
302.321
302.277
302.229
302.179
302.131
302.057
301.901
301.872
301.883
301.906
301.928
301.945
301.956
301.963
301.968
301.973
301.978
301.984
301.995
302.011
302.031
302.052
302.046
302.078
302.674
302.596
302.603
302.704
302.718
302.724
302.716
302.693
302.651
302.59
302.555
302.526
302.501
302.479
302.457
302.434
302.409
302.379
302.346
302.309
302.263
302.181
301.975
301.912
301.929
301.947
301.962
301.974
301.981
301.985
301.988
301.99
301.992
301.994
301.999
302.008
302.021
302.029
302.03
302.066
)
;

boundaryField
{
    floor
    {
        type            wallHeatTransfer;
        Tinf            uniform 305.2;
        alphaWall       uniform 0.24;
        value           nonuniform List<scalar> 
29
(
302.137
302.35
302.194
302.141
302.119
302.11
302.116
302.141
302.172
302.203
302.235
302.269
302.306
302.345
302.387
302.429
302.469
302.502
302.495
302.522
302.522
302.363
302.276
302.208
302.137
302.35
302.165
302.04
301.995
)
;
    }
    ceiling
    {
        type            wallHeatTransfer;
        Tinf            uniform 303.2;
        alphaWall       uniform 0.24;
        value           nonuniform List<scalar> 
43
(
302.709
302.632
302.636
302.74
302.751
302.755
302.748
302.725
302.687
302.633
302.602
302.578
302.557
302.539
302.522
302.503
302.483
302.459
302.431
302.401
302.365
302.297
302.12
302.058
302.069
302.083
302.097
302.107
302.111
302.113
302.112
302.109
302.105
302.103
302.102
302.106
302.116
302.125
302.133
302.173
302.808
302.463
302.504
)
;
    }
    sWall
    {
        type            wallHeatTransfer;
        Tinf            uniform 315.2;
        alphaWall       uniform 0.36;
        value           uniform 303.903;
    }
    nWall
    {
        type            wallHeatTransfer;
        Tinf            uniform 307.2;
        alphaWall       uniform 0.36;
        value           nonuniform List<scalar> 6(302.66 302.557 302.443 302.765 302.74 302.759);
    }
    sideWalls
    {
        type            empty;
    }
    glass1
    {
        type            wallHeatTransfer;
        Tinf            uniform 315.2;
        alphaWall       uniform 4.3;
        value           nonuniform List<scalar> 9(310.563 309.853 309.68 309.82 308.828 308.327 308.055 307.759 307.433);
    }
    glass2
    {
        type            wallHeatTransfer;
        Tinf            uniform 307.2;
        alphaWall       uniform 4.3;
        value           nonuniform List<scalar> 2(304.989 305.154);
    }
    sun
    {
        type            wallHeatTransfer;
        Tinf            uniform 305.2;
        alphaWall       uniform 0.24;
        value           nonuniform List<scalar> 
14
(
302.477
302.213
302.182
302.16
302.146
302.142
302.142
302.143
302.143
302.143
302.141
302.14
302.138
302.137
)
;
    }
    heatsource1
    {
        type            fixedGradient;
        gradient        uniform 0;
    }
    heatsource2
    {
        type            fixedGradient;
        gradient        uniform 0;
    }
    Table_master
    {
        type            zeroGradient;
    }
    Table_slave
    {
        type            zeroGradient;
    }
    inlet
    {
        type            fixedValue;
        value           uniform 290.15;
    }
    outlet
    {
        type            zeroGradient;
    }
}


// ************************************************************************* //
