/*--------------------------------*- C++ -*----------------------------------*\
  =========                 |
  \\      /  F ield         | OpenFOAM: The Open Source CFD Toolbox
   \\    /   O peration     | Website:  https://openfoam.org
    \\  /    A nd           | Version:  6
     \\/     M anipulation  |
\*---------------------------------------------------------------------------*/
FoamFile
{
    version     2.0;
    format      ascii;
    class       volVectorField;
    location    "50";
    object      U;
}
// * * * * * * * * * * * * * * * * * * * * * * * * * * * * * * * * * * * * * //

dimensions      [0 1 -1 0 0 0 0];

internalField   nonuniform List<vector> 
459
(
(-0.000633707 0.0975585 0)
(-0.188818 0.0268475 0)
(-0.200984 0.00442726 0)
(-0.206527 -0.00168088 0)
(-0.207671 -0.00324414 0)
(-0.206909 -0.00478441 0)
(-0.203393 -0.006804 0)
(-0.196722 -0.00910299 0)
(-0.186822 -0.0116629 0)
(-0.173737 -0.0145043 0)
(-0.157031 -0.0178572 0)
(-0.135293 -0.0221877 0)
(-0.107498 -0.0288713 0)
(-0.0800701 -0.0402712 0)
(-0.0781682 -0.0558273 0)
(0.0565597 0.00727541 0)
(-0.0133048 -0.0108681 0)
(0.0114897 -0.0156186 0)
(0.0311616 -0.0163656 0)
(0.0507981 -0.0169554 0)
(0.0695588 -0.0145363 0)
(0.0828096 -0.00775393 0)
(0.0871361 -0.0035819 0)
(0.085518 -0.0016042 0)
(0.082276 -0.000533684 0)
(0.0790213 0.000215404 0)
(0.0758146 0.000761109 0)
(0.072536 0.00114983 0)
(0.0691245 0.00150466 0)
(0.0652551 0.00216567 0)
(0.0599941 0.00360492 0)
(0.0522943 0.00500784 0)
(0.047388 0.00625264 0)
(-0.0187823 0.0231511 0)
(0.168788 0.195159 0)
(-0.151815 0.0623185 0)
(-0.122041 0.0112523 0)
(-0.1178 0.00193354 0)
(-0.124371 0.00378141 0)
(-0.14027 0.0012177 0)
(-0.154609 -0.00417762 0)
(-0.161845 -0.00995817 0)
(-0.161896 -0.0153744 0)
(-0.156727 -0.0203108 0)
(-0.147353 -0.0253265 0)
(-0.133773 -0.0310499 0)
(-0.116126 -0.0390601 0)
(-0.0966476 -0.0513776 0)
(-0.0779994 -0.0647948 0)
(-0.0532172 -0.0610685 0)
(-0.0159016 -0.0157603 0)
(0.104704 0.000430616 0)
(0.0208994 -0.00565837 0)
(0.0140684 -0.0153492 0)
(0.0234975 -0.0231686 0)
(0.0373012 -0.0280223 0)
(0.0523493 -0.0256666 0)
(0.0651401 -0.00808996 0)
(0.066983 0.00133717 0)
(0.0649522 0.00453994 0)
(0.0636048 0.00549231 0)
(0.0631364 0.00572978 0)
(0.0629035 0.00565589 0)
(0.062703 0.00550563 0)
(0.0625403 0.0056251 0)
(0.061905 0.00684485 0)
(0.0585971 0.0114516 0)
(0.0498134 0.0152882 0)
(0.0493525 0.0187382 0)
(-0.0673109 0.0485241 0)
(0.356116 0.278335 0)
(-0.125829 0.0231386 0)
(0.027202 -0.0469083 0)
(0.0293864 -0.0160739 0)
(0.0208056 0.0152135 0)
(-0.0143129 0.0235405 0)
(-0.0527147 0.0145206 0)
(-0.0877727 -0.000313009 0)
(-0.113197 -0.0144531 0)
(-0.123482 -0.0245634 0)
(-0.126041 -0.0336526 0)
(-0.12347 -0.0428576 0)
(-0.117947 -0.0537336 0)
(-0.110798 -0.0664866 0)
(-0.101799 -0.0773691 0)
(-0.0925316 -0.0806459 0)
(-0.104086 -0.0819264 0)
(0.0513256 0.00029584 0)
(-0.0244921 -0.00902751 0)
(-0.0141866 -0.0206516 0)
(-0.000466297 -0.0340349 0)
(0.0146855 -0.043014 0)
(0.0278621 -0.0464491 0)
(0.048497 -0.0233614 0)
(0.0422553 -0.0085749 0)
(0.0375334 -0.00280294 0)
(0.0393755 -0.000731123 0)
(0.0434275 5.07329e-05 0)
(0.0473692 0.000226933 0)
(0.0509607 0.000122939 0)
(0.0546444 0.000131987 0)
(0.0592231 0.0024627 0)
(0.0595732 0.0182217 0)
(0.048075 0.028558 0)
(0.0562581 0.03675 0)
(-0.109674 0.0746554 0)
(0.601191 0.358682 0)
(0.293773 0.122617 0)
(0.309376 0.0579428 0)
(0.318489 0.0749856 0)
(0.270186 0.0935648 0)
(0.198825 0.0943715 0)
(0.126738 0.0807315 0)
(0.0592518 0.058463 0)
(-0.00706542 0.0267012 0)
(-0.0598939 -0.00519113 0)
(-0.088173 -0.0256182 0)
(-0.101184 -0.0395191 0)
(-0.108951 -0.0525238 0)
(-0.115071 -0.0650839 0)
(-0.121445 -0.0744347 0)
(-0.132318 -0.0762792 0)
(-0.149456 -0.0607082 0)
(-0.138004 -0.00600295 0)
(-0.0928663 -0.0142166 0)
(-0.0676103 -0.0228801 0)
(-0.0437624 -0.0369539 0)
(-0.0246452 -0.0494794 0)
(-0.0101225 -0.0560405 0)
(-0.00492535 -0.0546577 0)
(0.000876307 -0.028271 0)
(0.0282447 -0.0191486 0)
(0.0466911 -0.01498 0)
(0.0608223 -0.0125338 0)
(0.0726062 -0.010743 0)
(0.0823699 -0.00886033 0)
(0.0892082 -0.00612001 0)
(0.091 -0.00178294 0)
(0.0848155 0.00485568 0)
(0.071914 0.0250287 0)
(0.0563697 0.0438308 0)
(0.0678201 0.0604051 0)
(-0.124503 0.0987491 0)
(0.799377 -0.179798 0)
(0.465921 -0.173092 0)
(0.498654 -0.0798472 0)
(0.510216 0.0301495 0)
(0.447522 0.11275 0)
(0.355683 0.152048 0)
(0.263669 0.155591 0)
(0.178851 0.135863 0)
(0.102335 0.102169 0)
(0.0369266 0.0615956 0)
(-0.024588 0.0126243 0)
(-0.0624779 -0.0207049 0)
(-0.0823514 -0.0400557 0)
(-0.0964531 -0.0549788 0)
(-0.108469 -0.0664365 0)
(-0.119704 -0.0731825 0)
(-0.126139 -0.0700809 0)
(-0.119794 -0.0517617 0)
(-0.100908 -0.0443377 0)
(-0.0788737 -0.0484413 0)
(-0.0571056 -0.0588293 0)
(-0.0367355 -0.0681876 0)
(-0.0188964 -0.0691915 0)
(-0.00715647 -0.0588379 0)
(0.00526049 -0.0390246 0)
(0.0206133 -0.0284178 0)
(0.0336733 -0.0224827 0)
(0.0448468 -0.0189132 0)
(0.0547843 -0.016137 0)
(0.063687 -0.0127213 0)
(0.0710979 -0.00703855 0)
(0.0762574 0.00245981 0)
(0.0771628 0.0160615 0)
(0.0740007 0.0357449 0)
(0.0662764 0.0572197 0)
(0.0832415 0.0808336 0)
(0.00581268 0.107479 0)
(0.0828169 0.0741433 0)
(-0.0331181 -0.0105048 0)
(-0.306908 -0.0465859 0)
(0.746263 -0.50991 0)
(0.187263 -0.286453 0)
(0.285757 -0.0608189 0)
(0.349006 0.0999138 0)
(0.328037 0.189177 0)
(0.279365 0.228054 0)
(0.227425 0.22926 0)
(0.174738 0.204258 0)
(0.122744 0.16367 0)
(0.0748297 0.116482 0)
(0.0305552 0.0669075 0)
(-0.0103517 0.0181826 0)
(-0.0439724 -0.0184907 0)
(-0.0638375 -0.0396017 0)
(-0.0794381 -0.0536203 0)
(-0.0924023 -0.0620806 0)
(-0.10025 -0.0634579 0)
(-0.0996511 -0.0602031 0)
(-0.090877 -0.0608131 0)
(-0.0772017 -0.0676475 0)
(-0.0609693 -0.0787655 0)
(-0.0421573 -0.0883549 0)
(-0.023042 -0.0857918 0)
(-0.00937439 -0.0686615 0)
(-0.000542797 -0.0506741 0)
(0.00876699 -0.0388896 0)
(0.0171724 -0.0320641 0)
(0.0249648 -0.0279534 0)
(0.0325157 -0.0249065 0)
(0.0401315 -0.0211978 0)
(0.0478518 -0.0147476 0)
(0.0554883 -0.00332537 0)
(0.0626828 0.013661 0)
(0.0678546 0.0349206 0)
(0.0712975 0.0580012 0)
(0.0898031 0.0832356 0)
(0.0801312 0.0961225 0)
(0.117689 0.0774288 0)
(0.127283 0.0552154 0)
(-0.0950623 0.0208011 0)
(0.633387 -0.551063 0)
(-0.152564 -0.273918 0)
(0.0703613 -0.0329837 0)
(0.167143 0.133628 0)
(0.153268 0.213459 0)
(0.142844 0.256352 0)
(0.133031 0.262805 0)
(0.117697 0.240261 0)
(0.0976386 0.199652 0)
(0.075893 0.150896 0)
(0.0532541 0.100227 0)
(0.029647 0.0530675 0)
(0.0048767 0.0126057 0)
(-0.0212854 -0.0198954 0)
(-0.0389705 -0.0387148 0)
(-0.0538068 -0.0506402 0)
(-0.0647181 -0.0570365 0)
(-0.0704167 -0.0613706 0)
(-0.0707772 -0.0679988 0)
(-0.066786 -0.0790086 0)
(-0.058553 -0.0941559 0)
(-0.0438503 -0.108139 0)
(-0.0266216 -0.103925 0)
(-0.0137624 -0.0779146 0)
(-0.0101435 -0.0579366 0)
(-0.00684817 -0.0453652 0)
(-0.00359519 -0.0379901 0)
(-0.000118543 -0.0338771 0)
(0.00387113 -0.0313737 0)
(0.00870563 -0.0286343 0)
(0.014799 -0.0234417 0)
(0.0226032 -0.0131799 0)
(0.0345202 0.00431506 0)
(0.0464304 0.0255563 0)
(0.0581985 0.0468843 0)
(0.0788666 0.0673057 0)
(0.0963523 0.0723969 0)
(0.127822 0.0568687 0)
(0.16588 0.0577931 0)
(-0.0326762 0.117853 0)
(0.411223 -0.452135 0)
(-0.283753 -0.26464 0)
(-0.20154 -0.135626 0)
(0.00456366 0.125288 0)
(-0.0334118 0.186315 0)
(0.00839552 0.24303 0)
(0.0358903 0.258581 0)
(0.051628 0.242992 0)
(0.0593515 0.207495 0)
(0.061971 0.162028 0)
(0.0602306 0.11431 0)
(0.053974 0.0702552 0)
(0.0434028 0.0333623 0)
(0.0279801 0.00327299 0)
(0.0102312 -0.0200653 0)
(-0.00606015 -0.0363041 0)
(-0.0197751 -0.0462446 0)
(-0.0311763 -0.05456 0)
(-0.0405443 -0.0652099 0)
(-0.0475037 -0.0806027 0)
(-0.0498725 -0.102104 0)
(-0.0413645 -0.124402 0)
(-0.030016 -0.121084 0)
(-0.0187438 -0.0836525 0)
(-0.0215899 -0.0590807 0)
(-0.0250103 -0.045639 0)
(-0.0276915 -0.0386138 0)
(-0.029586 -0.0352502 0)
(-0.0307787 -0.0337044 0)
(-0.031265 -0.0323928 0)
(-0.0307265 -0.0297175 0)
(-0.0284043 -0.0240461 0)
(-0.0221987 -0.013868 0)
(-0.00652699 0.00179321 0)
(0.00692533 0.0188044 0)
(0.0246815 0.0291634 0)
(0.0413313 0.0226087 0)
(0.0625283 0.00467295 0)
(0.128395 0.0646709 0)
(-0.469648 0.242114 0)
(0.12672 -0.332758 0)
(-0.575643 -0.274084 0)
(-0.723457 -0.243537 0)
(-0.17525 -0.0183386 0)
(-0.19455 0.108552 0)
(-0.104365 0.186716 0)
(-0.0471202 0.220709 0)
(-0.0056492 0.218483 0)
(0.0246314 0.19081 0)
(0.0465303 0.151776 0)
(0.0622491 0.110262 0)
(0.0710453 0.0722723 0)
(0.0729923 0.0406861 0)
(0.06894 0.0155141 0)
(0.0585782 -0.00471177 0)
(0.0457034 -0.0202419 0)
(0.0316056 -0.0314974 0)
(0.0170189 -0.040757 0)
(0.000587401 -0.0520736 0)
(-0.0174002 -0.0692939 0)
(-0.0327383 -0.0964402 0)
(-0.031915 -0.12907 0)
(-0.0328597 -0.130414 0)
(-0.0228218 -0.0820207 0)
(-0.0323391 -0.0536209 0)
(-0.0435666 -0.0404578 0)
(-0.0526785 -0.0345465 0)
(-0.060453 -0.0318359 0)
(-0.0681632 -0.0301664 0)
(-0.0768842 -0.0279771 0)
(-0.0873769 -0.0236186 0)
(-0.10055 -0.0151699 0)
(-0.11769 -0.00074698 0)
(-0.137349 0.0196769 0)
(-0.160455 0.0435728 0)
(-0.198345 0.0686844 0)
(-0.253864 0.0911744 0)
(-0.317022 0.108316 0)
(-0.399088 0.117683 0)
(-0.699146 0.115618 0)
(-1.52581 -0.263689 0)
(-0.131601 -0.165599 0)
(-0.248164 -0.000426404 0)
(-0.170145 0.109814 0)
(-0.104833 0.159735 0)
(-0.0488128 0.170896 0)
(-0.00145601 0.15507 0)
(0.0368327 0.123612 0)
(0.0658276 0.0907276 0)
(0.0864799 0.0612659 0)
(0.0984211 0.0370402 0)
(0.102789 0.0180253 0)
(0.100861 0.00318709 0)
(0.0927607 -0.00855804 0)
(0.0811983 -0.0172305 0)
(0.0671175 -0.0238652 0)
(0.0499858 -0.0306048 0)
(0.0277702 -0.0413409 0)
(1.46093e-05 -0.067603 0)
(-0.00903896 -0.112177 0)
(-0.0350053 -0.122435 0)
(-0.0302897 -0.0627019 0)
(-0.0427861 -0.035351 0)
(-0.0602997 -0.0270725 0)
(-0.0735988 -0.024274 0)
(-0.0842875 -0.0228762 0)
(-0.0949086 -0.0212692 0)
(-0.106776 -0.018263 0)
(-0.119559 -0.0123678 0)
(-0.13162 -0.00187285 0)
(-0.14108 0.0140138 0)
(-0.148053 0.0355723 0)
(-0.154259 0.0624076 0)
(-0.1622 0.0892168 0)
(-0.169366 0.103664 0)
(-0.162349 0.0814036 0)
(-0.14419 -0.023804 0)
(-0.287794 -0.23599 0)
(-0.267649 0.0444814 0)
(-0.0918662 -0.140703 0)
(-0.211499 -0.0324986 0)
(-0.191604 0.0508432 0)
(-0.1374 0.0969117 0)
(-0.0759485 0.113314 0)
(-0.0167183 0.108335 0)
(0.0375363 0.0860011 0)
(0.0757244 0.064035 0)
(0.104657 0.0458665 0)
(0.123469 0.0321929 0)
(0.133451 0.0227837 0)
(0.136589 0.0170352 0)
(0.133918 0.0137411 0)
(0.127188 0.0112465 0)
(0.117277 0.00964305 0)
(0.104049 0.00786159 0)
(0.0861824 0.00164733 0)
(0.0615263 -0.0223608 0)
(0.0405396 -0.0836783 0)
(-0.0323126 -0.116082 0)
(-0.0540552 -0.0293594 0)
(-0.0640485 0.0263664 0)
(-0.0787431 0.0378721 0)
(-0.0891753 0.0360074 0)
(-0.096864 0.0349011 0)
(-0.103448 0.0362285 0)
(-0.10957 0.0379689 0)
(-0.11506 0.0383613 0)
(-0.118571 0.0372855 0)
(-0.117668 0.0399224 0)
(-0.1099 0.0497714 0)
(-0.0945616 0.068025 0)
(-0.0730817 0.0915089 0)
(-0.047523 0.110516 0)
(-0.015346 0.106492 0)
(0.136679 0.0271363 0)
(-0.202792 -0.159334 0)
(0.254624 -0.151384 0)
(-0.246699 -0.100513 0)
(-0.201984 0.0429164 0)
(-0.184238 -0.0584786 0)
(-0.234773 -0.0220405 0)
(-0.215805 0.0122219 0)
(-0.162613 0.0353612 0)
(-0.0939004 0.0458115 0)
(-0.0204175 0.0439649 0)
(0.0539387 0.0222678 0)
(0.0991671 0.00503065 0)
(0.134293 -0.0103026 0)
(0.158276 -0.0239452 0)
(0.172519 -0.0363535 0)
(0.179626 -0.0479032 0)
(0.182007 -0.0589882 0)
(0.180648 -0.0690978 0)
(0.176552 -0.0790982 0)
(0.170203 -0.0903632 0)
(0.160894 -0.10516 0)
(0.144222 -0.127071 0)
(0.117056 -0.163799 0)
(-0.00261592 -0.218132 0)
(-0.0834652 -0.199893 0)
(-0.092579 -0.179499 0)
(-0.0988597 -0.172424 0)
(-0.10478 -0.169577 0)
(-0.11196 -0.165518 0)
(-0.118365 -0.158693 0)
(-0.122277 -0.148631 0)
(-0.122785 -0.134331 0)
(-0.118865 -0.115209 0)
(-0.107933 -0.0939571 0)
(-0.0859896 -0.0698305 0)
(-0.0510724 -0.0422098 0)
(0.00124128 -0.00894443 0)
(0.065403 0.00648497 0)
(0.120546 -0.0157681 0)
(0.183655 -0.0750348 0)
(-0.141975 -0.158315 0)
)
;

boundaryField
{
    floor
    {
        type            noSlip;
    }
    ceiling
    {
        type            noSlip;
    }
    sWall
    {
        type            noSlip;
    }
    nWall
    {
        type            noSlip;
    }
    sideWalls
    {
        type            empty;
    }
    glass1
    {
        type            noSlip;
    }
    glass2
    {
        type            noSlip;
    }
    sun
    {
        type            noSlip;
    }
    heatsource1
    {
        type            noSlip;
    }
    heatsource2
    {
        type            noSlip;
    }
    Table_master
    {
        type            noSlip;
    }
    Table_slave
    {
        type            noSlip;
    }
    inlet
    {
        type            fixedValue;
        value           uniform (0.1 0 0);
    }
    outlet
    {
        type            zeroGradient;
    }
}


// ************************************************************************* //
