/*--------------------------------*- C++ -*----------------------------------*\
  =========                 |
  \\      /  F ield         | OpenFOAM: The Open Source CFD Toolbox
   \\    /   O peration     | Website:  https://openfoam.org
    \\  /    A nd           | Version:  6
     \\/     M anipulation  |
\*---------------------------------------------------------------------------*/
FoamFile
{
    version     2.0;
    format      ascii;
    class       volScalarField;
    location    "100";
    object      alphat;
}
// * * * * * * * * * * * * * * * * * * * * * * * * * * * * * * * * * * * * * //

dimensions      [1 -1 -1 0 0 0 0];

internalField   nonuniform List<scalar> 
459
(
0.00171282
0.00191355
0.00200194
0.00212589
0.00225681
0.00238715
0.00248892
0.00254656
0.00253331
0.00239313
0.00223875
0.00206198
0.00187216
0.00169383
0.00149627
0.000855124
0.00100472
0.001182
0.00130235
0.00133046
0.00130052
0.00121624
0.00112654
0.00104637
0.000977059
0.000917283
0.000865591
0.000820457
0.000780628
0.000744784
0.000710868
0.000675932
0.000637765
0.000578693
0.00216678
0.00585633
0.00596907
0.00693955
0.00781089
0.00846481
0.00904354
0.00956921
0.010001
0.0100196
0.00956057
0.00880269
0.00758029
0.00583091
0.0037963
0.00167799
0.00141566
0.000832795
0.00218867
0.00371559
0.0048968
0.00557208
0.00539402
0.00364478
0.00297206
0.00254873
0.00224897
0.00202537
0.00185297
0.00171849
0.00160141
0.00147291
0.00134516
0.00122502
0.00119111
0.000637013
0.00253826
0.00810879
0.00757776
0.00838602
0.00880227
0.00908824
0.00941509
0.00998891
0.0107872
0.0112984
0.0113284
0.0109614
0.010202
0.00874666
0.00668851
0.00416121
0.00158099
0.000876195
0.00219945
0.00391797
0.00574271
0.00696707
0.00651293
0.00164076
0.00141757
0.0012385
0.00109628
0.000982837
0.000891595
0.000817681
0.000759145
0.000718094
0.000834586
0.00100801
0.00131343
0.000667569
0.00289061
0.0100443
0.00824758
0.00885643
0.00881481
0.00868854
0.00874481
0.0093568
0.0103461
0.0111422
0.0114984
0.011434
0.0110233
0.0101194
0.00861554
0.00643636
0.00340738
0.00171368
0.00200971
0.00328588
0.00537353
0.00749016
0.00885555
0.00814509
0.00186948
0.00169186
0.00155351
0.00143804
0.00133336
0.00123276
0.00113192
0.00102704
0.000910203
0.000844227
0.000951082
0.00141876
0.000687745
0.00324847
0.0123479
0.00953792
0.0096561
0.00916176
0.0085293
0.00837004
0.00900637
0.0100806
0.0110293
0.011521
0.0115727
0.0113253
0.0108175
0.00993882
0.00858804
0.00680495
0.00625221
0.00726014
0.00873309
0.010288
0.0115017
0.0121108
0.0117526
0.00945035
0.00816239
0.00715908
0.0062146
0.00530342
0.0044126
0.00353674
0.00268547
0.00188575
0.00129019
0.00111109
0.00136988
0.000822246
0.000694311
0.000800734
0.000918962
0.00362254
0.0148116
0.0123634
0.0111812
0.00969337
0.00855469
0.00827669
0.00897451
0.0101857
0.011247
0.011789
0.0118962
0.0118253
0.0117652
0.0115677
0.0111655
0.0107527
0.0112362
0.0125787
0.0137088
0.0144773
0.0147974
0.0146498
0.0139816
0.0126659
0.0112397
0.0097885
0.0083941
0.00706532
0.00579745
0.00458861
0.00345656
0.00245064
0.00172025
0.00143795
0.00144453
0.00109692
0.000965058
0.00134807
0.000971088
0.00389455
0.0160964
0.0150283
0.0121397
0.00972725
0.00832206
0.00819457
0.00918419
0.0106458
0.0118211
0.012386
0.0126651
0.013128
0.0136649
0.0139604
0.0141424
0.0144812
0.0153042
0.0162596
0.0167687
0.0168166
0.0164531
0.015731
0.0146762
0.0132676
0.0117107
0.0101562
0.00867584
0.00729769
0.00603584
0.00490099
0.00390108
0.00300959
0.00237479
0.00208402
0.00193794
0.00169568
0.00161655
0.00156422
0.00112877
0.00391989
0.0125824
0.0114746
0.00937961
0.00781525
0.00731605
0.00805185
0.00972416
0.0115291
0.0127283
0.0132763
0.014175
0.0151984
0.0157552
0.0160845
0.0164154
0.0168662
0.0174295
0.0178139
0.0177515
0.0172332
0.0163562
0.0151983
0.0138223
0.0122981
0.0107396
0.00922973
0.00782662
0.00657055
0.00549302
0.00461579
0.00394243
0.00344811
0.00310432
0.00293481
0.00295011
0.0030722
0.00329969
0.00411309
0.00165415
0.00379322
0.00436744
0.00449311
0.004388
0.00482397
0.00626768
0.00860248
0.0111711
0.0129648
0.013691
0.0145262
0.0155474
0.0162671
0.0165934
0.016817
0.0170705
0.0173212
0.0174454
0.0172758
0.016721
0.0158106
0.0146317
0.0132725
0.0118067
0.0102978
0.00879784
0.00733982
0.00595243
0.00468645
0.00364286
0.00293099
0.00255635
0.00241515
0.00239437
0.00241965
0.0024498
0.00244389
0.00236811
0.0022336
0.00154169
0.000657397
0.00286735
0.00652736
0.0101545
0.012834
0.0143197
0.0144079
0.0141974
0.0145555
0.0150611
0.0152723
0.0153643
0.0154725
0.0155659
0.0155413
0.015286
0.0147293
0.0138708
0.0127727
0.0115235
0.0102062
0.00888319
0.0075922
0.0063521
0.00518703
0.00414818
0.00331093
0.00273498
0.00241476
0.00228529
0.00227345
0.00232568
0.00239995
0.00245156
0.00243363
0.00232442
0.00207041
0.00127148
0.00443926
0.0133866
0.0139489
0.013515
0.0127588
0.0119367
0.0114859
0.0112427
0.0110946
0.010943
0.0108421
0.0108305
0.0108608
0.0108481
0.0107064
0.0103725
0.00982956
0.00910958
0.00827768
0.00740627
0.00655268
0.00575022
0.00501384
0.00435379
0.00378531
0.00332544
0.00298172
0.0027448
0.00259265
0.00250286
0.00246174
0.00246069
0.00248248
0.00249733
0.00244374
0.00240076
0.00222469
0.00130746
0.00302194
0.00322976
0.00341641
0.00328162
0.00290318
0.00266429
0.00246279
0.00226318
0.00207703
0.00193749
0.00185082
0.00179939
0.00176663
0.00174085
0.00171324
0.00167735
0.00162942
0.0015692
0.0015002
0.00142799
0.00135778
0.00129288
0.00123443
0.0011822
0.00113562
0.00109463
0.00105992
0.00103265
0.00101392
0.00100447
0.00100498
0.0010165
0.00104067
0.00107921
0.0011315
0.00119693
0.00121499
0.00114695
0.00107905
0.00109228
)
;

boundaryField
{
    floor
    {
        type            compressible::alphatWallFunction;
        Prt             0.85;
        value           nonuniform List<scalar> 
29
(
0.00021039
0.000121683
0.000142933
0.000167643
0.000184177
0.000188019
0.000183937
0.000172376
0.000159971
0.000148789
0.000139041
0.000130569
0.000123192
0.000116708
0.000110952
0.000105741
0.000100784
9.56473e-05
8.99987e-05
8.11739e-05
8.1173e-05
8.98878e-05
9.44133e-05
9.73886e-05
0.000210388
0.000121682
0.000118476
0.000124693
0.00023941
)
;
    }
    ceiling
    {
        type            compressible::alphatWallFunction;
        Prt             0.85;
        value           nonuniform List<scalar> 
43
(
0.000407218
0.00043304
0.000456088
0.000439498
0.000392462
0.000362438
0.000336885
0.00031135
0.00028732
0.000269161
0.000257815
0.000251057
0.000246744
0.000243342
0.000239692
0.000234935
0.000228563
0.000220525
0.000211272
0.000201535
0.000192015
0.000183164
0.000175148
0.000167948
0.000161495
0.000155788
0.000150934
0.000147105
0.000144464
0.000143126
0.000143188
0.000144798
0.000148181
0.000153562
0.00016083
0.000169874
0.000172369
0.000162988
0.000153552
0.000155405
0.000502321
0.000571732
0.000580197
)
;
    }
    sWall
    {
        type            compressible::alphatWallFunction;
        Prt             0.85;
        value           uniform 0.000406036;
    }
    nWall
    {
        type            compressible::alphatWallFunction;
        Prt             0.85;
        value           nonuniform List<scalar> 6(0.000130622 0.000137996 0.000160054 0.000179844 0.000184766 0.000155103);
    }
    sideWalls
    {
        type            empty;
    }
    glass1
    {
        type            compressible::alphatWallFunction;
        Prt             0.85;
        value           nonuniform List<scalar> 9(0.000233197 0.000291768 0.000338838 0.0003829 0.000427142 0.000472896 0.000505931 0.000509168 0.000494152);
    }
    glass2
    {
        type            compressible::alphatWallFunction;
        Prt             0.85;
        value           nonuniform List<scalar> 2(0.000229925 0.000215175);
    }
    sun
    {
        type            compressible::alphatWallFunction;
        Prt             0.85;
        value           nonuniform List<scalar> 
14
(
0.000239304
0.000265724
0.000277268
0.000293364
0.00031026
0.000326971
0.000339951
0.000347274
0.000345567
0.00032771
0.000307912
0.000285062
0.000260295
0.000236772
)
;
    }
    heatsource1
    {
        type            compressible::alphatWallFunction;
        Prt             0.85;
        value           nonuniform List<scalar> 3(9.84796e-05 0.000113977 0.000130935);
    }
    heatsource2
    {
        type            compressible::alphatWallFunction;
        Prt             0.85;
        value           nonuniform List<scalar> 4(0.000234911 0.000199751 0.000199749 0.000221983);
    }
    Table_master
    {
        type            compressible::alphatWallFunction;
        Prt             0.85;
        value           nonuniform List<scalar> 9(0.000229993 0.000200034 0.000175615 0.000155934 0.000140024 0.000127072 0.000116466 0.000107985 0.000101992);
    }
    Table_slave
    {
        type            compressible::alphatWallFunction;
        Prt             0.85;
        value           nonuniform List<scalar> 9(0.000260237 0.000236797 0.00021835 0.000202816 0.000188611 0.000174839 0.000160906 0.000146261 0.000129739);
    }
    inlet
    {
        type            fixedValue;
        value           uniform 1.94e-05;
    }
    outlet
    {
        type            zeroGradient;
    }
}


// ************************************************************************* //
