/*--------------------------------*- C++ -*----------------------------------*\
  =========                 |
  \\      /  F ield         | OpenFOAM: The Open Source CFD Toolbox
   \\    /   O peration     | Website:  https://openfoam.org
    \\  /    A nd           | Version:  6
     \\/     M anipulation  |
\*---------------------------------------------------------------------------*/
FoamFile
{
    version     2.0;
    format      ascii;
    class       surfaceScalarField;
    location    "100";
    object      phi;
}
// * * * * * * * * * * * * * * * * * * * * * * * * * * * * * * * * * * * * * //

dimensions      [1 0 -1 0 0 0 0];

internalField   nonuniform List<scalar> 
852
(
-0.00347314
0.00353477
-0.00496407
0.00149086
-0.0058286
0.000864467
-0.00615785
0.000329191
-0.00588518
-0.000272738
-0.00494165
-0.000943588
-0.00337782
-0.0015639
-0.00142203
-0.00195589
0.00051556
-0.00193778
0.00197137
-0.00145595
0.00291208
-0.000940856
0.00331867
-0.000406724
0.00315849
0.000160051
0.00227609
0.000882275
0.0022787
-0.00115511
0.00115807
-0.00124144
8.61305e-05
-0.000530546
-0.000711097
0.000371268
-0.000902005
0.00113642
-0.000765351
0.00169265
-0.000556432
0.00201495
-0.000322501
0.00217217
-0.000157422
0.00226505
-9.30905e-05
0.00233015
-6.53175e-05
0.00237652
-4.65874e-05
0.00240792
-3.1617e-05
0.00242172
-1.40285e-05
0.00240289
1.86057e-05
0.00231435
8.83109e-05
0.00209198
0.000222139
0.00169665
0.000395094
0.00109687
0.000599542
0.00110017
-0.00248295
0.00618571
-0.00380715
0.00281499
-0.00467152
0.00172878
-0.00503001
0.000687626
-0.0048061
-0.000496692
-0.00396817
-0.00178155
-0.0026416
-0.00289052
-0.00109691
-0.00350066
0.000363794
-0.00339867
0.00157009
-0.00266245
0.00239768
-0.00176864
0.00285341
-0.000862622
0.0029775
3.5803e-05
0.0029266
0.000933037
0.00343572
0.00176945
0.00170403
0.00173152
0.00170387
-0.000231163
0.00139868
0.000260079
-0.000405341
0.000884156
-0.00133537
0.00137145
-0.00138949
0.00177274
-0.00116683
0.00206078
-0.000844668
0.00213097
-0.000392898
0.00214765
-0.000174302
0.00216442
-0.00011006
0.00217814
-7.925e-05
0.0021877
-5.63598e-05
0.00219434
-3.8476e-05
0.00219714
-1.70577e-05
0.00218903
2.64867e-05
0.00212763
0.000149478
0.00186535
0.00048418
0.00143354
0.000826669
0.000870027
0.00116281
0.0019799
-0.00172504
0.00817
-0.00279889
0.00388878
-0.00355786
0.00248771
-0.00387844
0.00100816
-0.00365337
-0.00072179
-0.00285886
-0.00257607
-0.00170785
-0.00404153
-0.00048201
-0.00472657
0.000610501
-0.00449138
0.00153042
-0.00358261
0.00219288
-0.00243134
0.00259249
-0.00126245
0.00279311
-0.000165003
0.00288016
0.000845822
0.00287881
0.00177066
0.00215545
0.00245475
0.00385921
0.00139636
1.77965e-05
0.00205359
-0.00106276
0.00220422
-0.00148618
0.00232067
-0.00150612
0.00243492
-0.00128128
0.00259178
-0.00100173
0.00219883
0.00202448
0.00191437
0.00183507
0.00177865
0.00174011
0.00172298
0.00174939
0.00189879
0.00149629
0.000886436
0.00109642
0.00122629
0.000629203
0.00162977
0.00262481
-0.00117062
0.0096789
-0.00195512
0.00467321
-0.00245127
0.00298381
-0.00260802
0.00116486
-0.00225287
-0.00107695
-0.00145286
-0.00337604
-0.000502819
-0.00499151
0.000367985
-0.00559742
0.00110678
-0.00523038
0.00171767
-0.00419381
0.00214938
-0.00286337
0.00240642
-0.00151978
0.00255356
-0.00031238
0.00267024
0.000728944
0.002849
0.00159174
0.00317375
0.00212985
0.00470152
0.00233132
0.00376501
0.000950359
0.00381377
-3.11125e-05
0.00353131
-0.000780453
0.00321384
-0.00116888
0.00294026
-0.00123273
0.00273019
-0.00107141
0.00248663
-0.000758394
0.00275461
-0.000268359
0.00280485
-5.06356e-05
0.00275656
4.78803e-05
0.00264413
0.000112022
0.00247657
0.000167147
0.00225154
0.000224605
0.00195321
0.000297901
0.00154574
0.000407026
0.000951777
0.000593517
0.000859972
0.000977951
0.000648869
0.00143711
0.000371621
0.00190676
0.00301783
-0.000780003
0.0108652
-0.00131031
0.00520345
-0.00138423
0.00305766
-0.00114066
0.000921227
-0.00046347
-0.00175416
0.000303546
-0.00414296
0.000945682
-0.00563354
0.00141125
-0.006063
0.00175393
-0.00557327
0.00198976
-0.00443
0.00210905
-0.00298306
0.00214037
-0.00155145
0.00215871
-0.000331014
0.00225535
0.000632075
0.00252413
0.00132276
0.00297631
0.0016775
0.00362733
0.00168015
0.00368145
0.000896092
0.00362183
2.83477e-05
0.00336869
-0.000527494
0.00301062
-0.000811007
0.00264176
-0.000864091
0.0023118
-0.000741693
0.0020469
-0.000493746
0.0019498
-0.000171529
0.00183984
5.90405e-05
0.00170208
0.000185341
0.0015565
0.000257308
0.00140773
0.000315617
0.00124969
0.000382335
0.00107059
0.000476691
0.000857722
0.000619582
0.000638047
0.000812875
0.000534717
0.00108097
0.00053831
0.00143322
0.00046662
0.00197817
0.000879089
0.0026051
-0.000773083
0.00165174
-0.00131677
0.000542865
-0.00126899
-0.000608763
0.0119386
-0.000841552
0.00543616
-0.000228049
0.00244406
0.000734141
-4.10907e-05
0.00169952
-0.00271953
0.00229534
-0.00473867
0.00256273
-0.00590078
0.00258276
-0.00608304
0.00243608
-0.00542683
0.00219552
-0.00418987
0.00191024
-0.00269828
0.00163775
-0.00127941
0.00146481
-0.000158423
0.00147432
0.000622301
0.00169225
0.0011046
0.00206151
0.00130805
0.00252995
0.00121152
0.00274868
0.00067717
0.00266802
0.00010879
0.0024227
-0.000282408
0.00208949
-0.00047805
0.00173192
-0.000506791
0.00139611
-0.000406184
0.00111585
-0.000213786
0.000917119
2.68847e-05
0.000770397
0.000205439
0.000652742
0.00030267
0.000553141
0.000356582
0.000471067
0.000397363
0.000408267
0.000444805
0.000367627
0.000517
0.000353888
0.000632986
0.000374683
0.000791745
0.000492695
0.000962624
0.000758392
0.0011672
0.00115109
0.00158517
0.0018033
0.00195262
0.00216967
0.00128512
0.00184704
0.000865132
0.000637134
-0.000370475
0.0128301
9.76871e-05
0.00496792
0.00194169
0.000599954
0.00341848
-0.00151796
0.00423387
-0.00353487
0.00450484
-0.00500947
0.0042865
-0.00568229
0.00370577
-0.00550233
0.00293193
-0.0046533
0.00211046
-0.00336894
0.00135248
-0.0019409
0.000748706
-0.000676154
0.000428085
0.000161783
0.000408189
0.000641894
0.000611642
0.000900891
0.000938265
0.000981178
0.00128629
0.000863241
0.00143917
0.00052403
0.00137374
0.000173946
0.00116379
-7.27631e-05
0.00087373
-0.000188308
0.000555922
-0.000189319
0.00025051
-0.00010112
-7.85808e-06
4.42288e-05
-0.000181211
0.000199878
-0.000280348
0.000304217
-0.00033997
0.000361936
-0.000371391
0.00038765
-0.000370586
0.000396211
-0.000326731
0.000400604
-0.000225524
0.000415448
-5.05083e-05
0.000457625
0.000199554
0.000541334
0.000522646
0.000639193
0.000935866
0.000753653
0.00149625
0.00102446
0.0022867
0.00116187
0.00289947
0.000672066
0.00295736
0.000806939
0.0036586
0.00356751
0.00984829
0.0048216
0.00371376
0.00604817
-0.000626716
0.00710271
-0.0025725
0.00739512
-0.00382712
0.00691801
-0.00453213
0.00585125
-0.0046154
0.00439855
-0.00404977
0.00284249
-0.00309769
0.00139112
-0.00191825
0.00019979
-0.000750262
-0.000526383
4.94547e-05
-0.000791745
0.000426749
-0.000759947
0.000609762
-0.000567127
0.000707759
-0.000304865
0.000718607
-6.86728e-05
0.000626731
1.88631e-05
0.000436156
-4.97554e-05
0.000242215
-0.000227775
0.000104888
-0.000463278
4.68128e-05
-0.000713455
6.04637e-05
-0.000937051
0.000122075
-0.00109967
0.000206442
-0.00118879
0.0002886
-0.00122869
0.000343734
-0.00123457
0.000367433
-0.00120951
0.000362216
-0.0011459
0.000332239
-0.00103024
0.000284585
-0.000847979
0.000232825
-0.000586957
0.000196244
-0.000239316
0.000193333
0.000164214
0.000235308
0.000572433
0.00034509
0.00104405
0.000552514
0.0015525
0.0006531
0.00169802
0.00052626
0.000779088
0.00172558
0.00470571
0.0105057
0.0142217
0.0133746
0.000220308
0.0122535
-0.00145119
0.0106828
-0.0022561
0.00860268
-0.0024518
0.00622601
-0.00223877
0.00370899
-0.00153317
0.00137817
-0.000767547
-0.000464475
-7.65051e-05
-0.00155837
0.000342997
-0.00196482
0.000455426
-0.00203271
0.000494218
-0.00194531
0.000521978
-0.0017773
0.000539363
-0.00158897
0.000529893
-0.00144179
0.000479157
-0.00139445
0.000388396
-0.00144721
0.000294558
-0.00156897
0.000226203
-0.00171861
0.000196015
-0.00186039
0.000201797
-0.0019712
0.000232436
-0.00204011
0.000274916
-0.00206836
0.000316422
-0.00207089
0.000345851
-0.00206346
0.000359596
-0.00206007
0.000358435
-0.00207491
0.000346684
-0.00212475
0.000334034
-0.00222969
0.000337372
-0.00241303
0.000379194
-0.0027039
0.000483824
-0.00314641
0.000677439
-0.00379699
0.000995319
-0.00470246
0.00145764
-0.00600934
0.00195964
-0.00769711
0.00221368
-0.00744834
0.00147646
-0.00246746
0.0082037
0.000407178
0.00679728
-4.4793e-05
0.00503977
-0.000498817
0.00299936
-0.000411809
0.000754013
5.82029e-06
-0.00124018
0.000459897
-0.00255584
0.000547319
-0.00316918
0.000536163
-0.00333188
0.000505148
-0.00332896
0.00045201
-0.00324343
0.000408222
-0.00311117
0.000389259
-0.0029585
0.000386241
-0.00281254
0.000383467
-0.00270185
0.000368001
-0.00265003
0.000336102
-0.00265484
0.000298881
-0.00269729
0.000268163
-0.00275284
0.000251079
-0.00280036
0.000248829
-0.00282679
0.000258383
-0.00282727
0.000274927
-0.00280427
0.000292962
-0.00276664
0.000307776
-0.00272524
0.000317755
-0.00269105
0.000323803
-0.00267381
0.000329014
-0.00267985
0.000339635
-0.00271014
0.000367224
-0.00276127
0.000429898
-0.00282954
0.000551684
-0.00291222
0.000759708
-0.00298827
0.00107099
-0.00299493
0.00146391
-0.00288015
0.00184449
-0.00232786
0.001661
-0.000811974
-3.983e-05
-0.00321689
-0.00284197
0.00326933
-0.00346052
0.000573035
-0.00411174
0.000151743
-0.00471005
0.00018583
-0.00504753
0.000342613
-0.00506527
0.000476917
-0.00500778
0.000489164
-0.00488809
0.000415875
-0.00471921
0.000335708
-0.00454154
0.000273804
-0.00436952
0.00023568
-0.00420117
0.000220385
-0.00403598
0.000220534
-0.00387954
0.000226505
-0.00374204
0.000229981
-0.00363327
0.000226804
-0.00355384
0.00021892
-0.00349643
0.000210223
-0.00345003
0.000204158
-0.00340422
0.0002025
-0.0033517
0.000205353
-0.00328887
0.000211598
-0.00321552
0.000219116
-0.00313377
0.000225527
-0.003046
0.0002295
-0.00295388
0.000231193
-0.00285783
0.00023247
-0.00275582
0.000237139
-0.00264044
0.000251361
-0.00249553
0.000284513
-0.00229611
0.000351801
-0.00201392
0.000477067
-0.00161226
0.000668891
-0.00100734
0.00085857
1.4735e-05
0.000822007
0.00146671
0.000208609
0.00235361
-0.000927216
-0.000794686
-0.00916666
-0.0122624
-0.00898229
-0.00840504
-0.00825222
-0.00806763
-0.00772835
-0.0072568
-0.00677491
-0.00636785
-0.00604216
-0.00577933
-0.00555543
-0.00534757
-0.00514031
-0.00492788
-0.00471286
-0.00450194
-0.00429984
-0.00410735
-0.00392174
-0.0037385
-0.003553
-0.00336174
-0.00316332
-0.00295875
-0.00275032
-0.00254011
-0.00232834
-0.00211139
-0.00187947
-0.00161343
-0.00127895
-0.000817901
-0.00016371
0.000681408
0.00148993
0.00168305
0.000737357
)
;

boundaryField
{
    floor
    {
        type            calculated;
        value           nonuniform List<scalar> 
29
(
0
0
0
0
0
0
0
0
0
0
0
0
0
0
0
0
0
0
0
0
-3.55028e-06
-9.96042e-06
-1.59638e-05
-2.16523e-05
-2.72786e-06
-3.18461e-06
-9.66546e-06
-1.5709e-05
-1.39788e-05
)
;
    }
    ceiling
    {
        type            calculated;
        value           nonuniform List<scalar> 
43
(
-1.22527e-05
-1.21292e-05
-1.18321e-05
-4.99127e-06
-1.7612e-06
5.85607e-07
2.6922e-06
4.73299e-06
6.6462e-06
8.21354e-06
9.42278e-06
1.03831e-05
1.11978e-05
1.19481e-05
1.2702e-05
1.35072e-05
1.43829e-05
1.53153e-05
1.62614e-05
1.71688e-05
1.79929e-05
1.87073e-05
1.93044e-05
1.9788e-05
2.01611e-05
2.04144e-05
2.05216e-05
2.0447e-05
2.01596e-05
1.96434e-05
1.88985e-05
1.79367e-05
1.67831e-05
1.54923e-05
1.41845e-05
1.29475e-05
1.2988e-05
1.49681e-05
1.788e-05
2.31287e-05
-7.71614e-07
-2.24279e-06
-2.15794e-05
)
;
    }
    sWall
    {
        type            calculated;
        value           uniform -0.000172716;
    }
    nWall
    {
        type            calculated;
        value           nonuniform List<scalar> 6(-4.84973e-05 -5.94802e-05 -6.44563e-05 -6.31289e-05 -6.91653e-05 -8.10996e-05);
    }
    sideWalls
    {
        type            empty;
        value           nonuniform 0();
    }
    glass1
    {
        type            calculated;
        value           nonuniform List<scalar> 9(-6.16924e-05 -0.000168046 -0.000259303 -0.000338311 -0.000406363 -0.000464633 -0.000521051 -0.000585738 -0.000656687);
    }
    glass2
    {
        type            calculated;
        value           nonuniform List<scalar> 2(-0.000268341 -0.000275549);
    }
    sun
    {
        type            calculated;
        value           uniform 0;
    }
    heatsource1
    {
        type            calculated;
        value           nonuniform List<scalar> 3(2.04345e-07 2.03995e-07 2.04139e-07);
    }
    heatsource2
    {
        type            calculated;
        value           nonuniform List<scalar> 4(5.14404e-08 5.16665e-08 0 0);
    }
    Table_master
    {
        type            calculated;
        value           nonuniform List<scalar> 9(-1.53697e-07 -1.53904e-07 -1.53954e-07 -1.53975e-07 -1.5398e-07 -1.53973e-07 -1.53956e-07 -1.5392e-07 -1.53836e-07);
    }
    Table_slave
    {
        type            calculated;
        value           nonuniform List<scalar> 9(1.53294e-07 1.5333e-07 1.53286e-07 1.53259e-07 1.53254e-07 1.53269e-07 1.53305e-07 1.53363e-07 1.53462e-07);
    }
    inlet
    {
        type            calculated;
        value           uniform -0.00839017;
    }
    outlet
    {
        type            calculated;
        value           nonuniform List<scalar> 2(0.00935055 0.00310685);
    }
}


// ************************************************************************* //
