/*--------------------------------*- C++ -*----------------------------------*\
  =========                 |
  \\      /  F ield         | OpenFOAM: The Open Source CFD Toolbox
   \\    /   O peration     | Website:  https://openfoam.org
    \\  /    A nd           | Version:  6
     \\/     M anipulation  |
\*---------------------------------------------------------------------------*/
FoamFile
{
    version     2.0;
    format      ascii;
    class       volScalarField;
    location    "800";
    object      epsilon;
}
// * * * * * * * * * * * * * * * * * * * * * * * * * * * * * * * * * * * * * //

dimensions      [0 2 -3 0 0 0 0];

internalField   nonuniform List<scalar> 
459
(
0.000510216
0.000668277
0.000704988
0.000813819
0.000925405
0.00103978
0.00116208
0.00128529
0.00137446
0.00140894
0.00137251
0.00126089
0.0010853
0.000876668
0.000679138
4.66298e-05
8.28288e-05
0.000116406
0.000113957
0.000102468
8.87014e-05
7.3308e-05
5.99315e-05
4.92879e-05
4.09545e-05
3.44007e-05
2.91938e-05
2.50363e-05
2.16515e-05
1.88135e-05
1.63246e-05
1.39996e-05
1.27949e-05
9.94777e-06
0.00129995
0.00185278
0.000633772
0.000614839
0.000648833
0.000702396
0.00077865
0.00087384
0.000959817
0.0010102
0.00100522
0.000939651
0.000821827
0.000678107
0.000574697
0.000731582
0.000126799
5.76044e-05
0.000134878
0.000141088
0.000127539
0.000108116
9.03096e-05
8.10718e-05
6.58069e-05
5.23387e-05
4.16384e-05
3.3357e-05
2.69754e-05
2.20729e-05
1.83024e-05
1.55243e-05
1.38304e-05
1.31347e-05
3.60175e-05
2.39898e-05
0.00236857
0.00451479
0.000803247
0.000597601
0.000631952
0.000717369
0.000839352
0.000984132
0.00110924
0.0011803
0.00118032
0.00111148
0.000985642
0.000830619
0.000692521
0.000623642
0.000755811
0.0004312
0.000304934
0.000227641
0.000174518
0.000136883
0.000115015
0.000209907
0.000144648
0.000103341
7.64505e-05
5.83729e-05
4.5838e-05
3.69205e-05
3.04727e-05
2.584e-05
1.97035e-05
1.67455e-05
6.99896e-05
3.87365e-05
0.00382084
0.00929406
0.00129894
0.000628143
0.000641496
0.000768329
0.000964863
0.00118364
0.00134277
0.00141534
0.0013997
0.00130861
0.0011537
0.000965819
0.000796051
0.00067882
0.000656138
0.0012518
0.00070323
0.000418859
0.000278522
0.000199777
0.00015182
0.000130159
0.000298412
0.000226224
0.000183005
0.000154133
0.000131869
0.000113118
9.68128e-05
8.14134e-05
6.56368e-05
3.8717e-05
2.61345e-05
0.000122923
5.26573e-05
0.00580126
0.0163978
0.00259095
0.00080274
0.000713097
0.000894195
0.00125186
0.00155244
0.00170743
0.00174398
0.00168665
0.00155067
0.00134911
0.00110968
0.000872161
0.000671326
0.000529954
0.000470911
0.00037957
0.000295831
0.000229466
0.0001796
0.000143354
0.000120215
0.00011695
0.00010944
0.000101792
9.40387e-05
8.56199e-05
7.65375e-05
6.76431e-05
5.93225e-05
5.1685e-05
4.1097e-05
3.19821e-05
8.51058e-05
6.02217e-05
9.56164e-05
0.000162295
0.000228177
0.00852623
0.0241366
0.00578427
0.00166128
0.00121134
0.0014765
0.0020241
0.00224423
0.00228037
0.00221901
0.00208945
0.00188734
0.00161377
0.00129404
0.000973857
0.000700628
0.000504515
0.000387435
0.000312619
0.000253247
0.000202775
0.000162729
0.000133527
0.00011506
0.000107085
0.000104224
0.000102552
9.99063e-05
9.49349e-05
8.65592e-05
7.52149e-05
6.38006e-05
5.35789e-05
4.45014e-05
3.92735e-05
5.98799e-05
6.19629e-05
7.41769e-05
0.000303326
0.000264054
0.0115689
0.0286755
0.0116576
0.005291
0.00389338
0.00387255
0.00369999
0.00343518
0.00316355
0.0029115
0.00265145
0.00233771
0.00195104
0.00151691
0.00109229
0.000740059
0.000496971
0.000354696
0.000273855
0.000218534
0.000175373
0.000143453
0.000122642
0.000112061
0.000110066
0.00011304
0.000117518
0.0001217
0.000124128
0.000122558
0.000112445
9.85066e-05
8.52112e-05
7.40831e-05
7.04524e-05
8.32422e-05
0.000109941
0.000187616
0.000438758
0.000410626
0.0121579
0.0301343
0.0172768
0.0123318
0.00966329
0.00754743
0.00600745
0.00497352
0.00429821
0.00382184
0.00339547
0.00291129
0.00234211
0.00173428
0.00116677
0.000724137
0.000446513
0.000296974
0.000221651
0.000176329
0.000145026
0.000125015
0.00011481
0.000112763
0.000117071
0.000125765
0.000137503
0.000152024
0.000169453
0.00018951
0.000210484
0.00022015
0.00023123
0.000256918
0.000310787
0.00048645
0.000952102
0.00192281
0.00560952
0.00148182
0.0111513
0.018295
0.0147079
0.0112405
0.00881111
0.00727385
0.00634242
0.00578259
0.00538402
0.00495607
0.00436257
0.0035597
0.00264622
0.00176874
0.00103005
0.000543962
0.000326756
0.000224894
0.00017198
0.000140639
0.000121529
0.000111576
0.000108891
0.000111942
0.000119616
0.000131353
0.000147365
0.000168747
0.000197407
0.000236109
0.000288631
0.000360232
0.000458539
0.000609688
0.000830964
0.00112696
0.00145583
0.00172558
0.00192175
0.00114894
0.0038515
0.00673071
0.00850954
0.00894233
0.00889776
0.00842145
0.00744987
0.00609534
0.00454904
0.00296211
0.00178495
0.00104288
0.000596367
0.000356315
0.00024186
0.000184722
0.000153015
0.000133426
0.000121435
0.000115327
0.000113825
0.000116017
0.000121451
0.000130117
0.000142476
0.000159582
0.000183271
0.000216537
0.000264117
0.000332308
0.000428293
0.000561303
0.00073318
0.000922033
0.00106849
0.00109861
0.000954918
0.00060208
0.0037648
0.00839167
0.00842411
0.00700113
0.00610533
0.00516256
0.00410748
0.00305357
0.00211047
0.00134719
0.0008289
0.000520448
0.00035051
0.00026307
0.000219151
0.000194786
0.000178512
0.000165711
0.000154977
0.000146875
0.000141587
0.000139203
0.00014002
0.000144592
0.000153744
0.000168626
0.000190881
0.000222915
0.0002683
0.000331794
0.000419713
0.000538159
0.00068705
0.00085677
0.000981987
0.00108741
0.000822085
0.000624952
0.00269225
0.00320912
0.00362126
0.00453033
0.00403102
0.00358813
0.00326568
0.00283413
0.00230944
0.00176718
0.00126779
0.000862755
0.000577474
0.000397543
0.000289057
0.000223089
0.000181686
0.00015499
0.000137881
0.000127744
0.000123216
0.000122345
0.000124466
0.000129321
0.000136916
0.000147468
0.000161412
0.00017948
0.00020291
0.000233761
0.0002728
0.000322301
0.000384926
0.000464133
0.000563451
0.000718349
0.000764114
0.000707513
0.000574199
0.000450111
)
;

boundaryField
{
    floor
    {
        Cmu             0.09;
        kappa           0.41;
        E               9.8;
        type            epsilonWallFunction;
        value           nonuniform List<scalar> 
29
(
0.000679138
4.66298e-05
8.28288e-05
0.000116406
0.000113957
0.000102468
8.87014e-05
7.3308e-05
5.99315e-05
4.92879e-05
4.09545e-05
3.44007e-05
2.91938e-05
2.50363e-05
2.16515e-05
1.88135e-05
1.63246e-05
1.39996e-05
1.27949e-05
9.94777e-06
9.94777e-06
2.39898e-05
3.87365e-05
5.26573e-05
0.000679138
4.66298e-05
5.76044e-05
0.0004312
0.0012518
)
;
    }
    ceiling
    {
        Cmu             0.09;
        kappa           0.41;
        E               9.8;
        type            epsilonWallFunction;
        value           nonuniform List<scalar> 
43
(
0.00269225
0.00320912
0.00362126
0.00453033
0.00403102
0.00358813
0.00326568
0.00283413
0.00230944
0.00176718
0.00126779
0.000862755
0.000577474
0.000397543
0.000289057
0.000223089
0.000181686
0.00015499
0.000137881
0.000127744
0.000123216
0.000122345
0.000124466
0.000129321
0.000136916
0.000147468
0.000161412
0.00017948
0.00020291
0.000233761
0.0002728
0.000322301
0.000384926
0.000464133
0.000563451
0.000718349
0.000764114
0.000707513
0.000574199
0.000450111
0.0111513
0.018295
0.0037648
)
;
    }
    sWall
    {
        Cmu             0.09;
        kappa           0.41;
        E               9.8;
        type            epsilonWallFunction;
        value           uniform 0.00269225;
    }
    nWall
    {
        Cmu             0.09;
        kappa           0.41;
        E               9.8;
        type            epsilonWallFunction;
        value           nonuniform List<scalar> 6(0.000228177 0.000264054 0.000410626 0.00060208 0.000624952 0.000450111);
    }
    sideWalls
    {
        type            empty;
    }
    glass1
    {
        Cmu             0.09;
        kappa           0.41;
        E               9.8;
        type            epsilonWallFunction;
        value           nonuniform List<scalar> 9(0.000510216 0.00129995 0.00236857 0.00382084 0.00580126 0.00852623 0.0115689 0.0121579 0.0111513);
    }
    glass2
    {
        Cmu             0.09;
        kappa           0.41;
        E               9.8;
        type            epsilonWallFunction;
        value           nonuniform List<scalar> 2(0.00148182 0.00114894);
    }
    sun
    {
        Cmu             0.09;
        kappa           0.41;
        E               9.8;
        type            epsilonWallFunction;
        value           nonuniform List<scalar> 
14
(
0.000510216
0.000668277
0.000704988
0.000813819
0.000925405
0.00103978
0.00116208
0.00128529
0.00137446
0.00140894
0.00137251
0.00126089
0.0010853
0.000876668
)
;
    }
    heatsource1
    {
        Cmu             0.09;
        kappa           0.41;
        E               9.8;
        type            epsilonWallFunction;
        value           nonuniform List<scalar> 3(9.56164e-05 0.000162295 0.000228177);
    }
    heatsource2
    {
        Cmu             0.09;
        kappa           0.41;
        E               9.8;
        type            epsilonWallFunction;
        value           nonuniform List<scalar> 4(0.000731582 0.000126799 0.000126799 0.000755811);
    }
    Table_master
    {
        Cmu             0.09;
        kappa           0.41;
        E               9.8;
        type            epsilonWallFunction;
        value           nonuniform List<scalar> 9(0.000209907 0.000144648 0.000103341 7.64505e-05 5.83729e-05 4.5838e-05 3.69205e-05 3.04727e-05 2.584e-05);
    }
    Table_slave
    {
        Cmu             0.09;
        kappa           0.41;
        E               9.8;
        type            epsilonWallFunction;
        value           nonuniform List<scalar> 9(0.000298412 0.000226224 0.000183005 0.000154133 0.000131869 0.000113118 9.68128e-05 8.14134e-05 6.56368e-05);
    }
    inlet
    {
        type            turbulentMixingLengthDissipationRateInlet;
        mixingLength    0.01;
        phi             phi;
        k               k;
        value           uniform 0.000101881;
    }
    outlet
    {
        type            zeroGradient;
    }
}


// ************************************************************************* //
