/*--------------------------------*- C++ -*----------------------------------*=========                 |
  \      /  F ield         | OpenFOAM: The Open Source CFD Toolbox
   \    /   O peration     | Website:  https://openfoam.org
    \  /    A nd           | Version:  6
     \/     M anipulation  |
\*---------------------------------------------------------------------------*/
FoamFile
{
    version     2.0;
    format      ascii;
    class       volScalarField;
    location    "2000";
    object      PPD;
}
// * * * * * * * * * * * * * * * * * * * * * * * * * * * * * * * * * * * * * //

dimensions      [0 0 0 0 0 0 0];

internalField   nonuniform List<scalar> 
459
(
59.46321262107402
47.748997171150535
46.35678865436334
45.132764676618145
44.30701370478989
43.82602454578403
43.66441143406458
43.84307706676921
44.32376413034099
45.19592641279215
46.51420418678245
48.34311583478138
50.828414242432785
53.07116398985826
53.279327789466386
56.63458225300771
55.95904185646691
55.69906081283144
55.80306236990171
55.93304726030716
56.06301194184747
56.15278898027891
55.922630440518574
55.89259937534726
55.940146143328896
55.99282722786807
56.09438746445791
56.225133995803446
56.37873041567815
56.65892819391493
57.132983168604554
57.38718350593871
57.568677639884896
58.190365662886876
57.41994613570404
48.8759762474204
48.4510820642395
47.32758115876618
46.66679753689646
46.25912154149594
46.14332361449632
46.25408844321166
46.495706439332274
46.908345083555254
47.68563131884262
48.91291519567427
50.686605248984804
52.65491172018604
52.65491172018604
52.62890003158174
52.49884993722876
54.565878058622424
55.49102424241012
55.282947653989226
55.36098071487777
55.1584133907721
54.939733113703
54.84414984776568
54.87701698811678
54.91257221013954
54.955750403513434
54.96513985782203
54.978922455305465
55.02602188125148
55.05857851518187
55.19389022498476
55.5818552530051
56.34885645773433
56.63458225300771
56.117027627802536
59.730436485721825
49.028995237511594
50.363719025301975
49.842199555705605
49.69893888010744
49.66904362804314
49.75710129200692
49.81360291730786
49.621227530504164
49.256073684072156
49.06130827301373
49.31295824038479
50.23521190593127
51.81839072637266
52.524858808100205
52.62890003158174
52.68092394096519
49.81544099002109
52.13723992997212
52.85309855420913
53.33769188141783
53.85024831355764
54.218440508448644
54.38515813295058
54.780769233538216
55.070859543681436
55.20312822914528
55.23509138106024
55.26285463462083
55.260600585337144
55.186282639876325
54.93320558590191
55.04622697398386
56.01998126342028
55.454689597012624
52.7677848336163
63.800805098894614
49.326082982353896
51.873921612246406
52.407349738062614
53.36994002711377
54.22572772205169
54.887078695583334
54.74591589194039
53.42167527183378
51.50427084606653
49.81997456505965
48.90500022391628
48.98237781282386
50.020415615081745
51.673086895249504
52.7069366834523
52.10310761643439
49.886621034288744
49.76381908217695
51.24043974940269
52.62323181029748
53.7583868212945
54.72328549203943
55.43085603321072
55.64955552885963
55.59999824491019
55.56934129684684
55.61621455992919
55.693652585654895
55.84520915801932
56.20105869523754
56.82083080581422
57.99558609155238
57.64000044104527
56.853679952717656
54.39127056508262
50.33207660784084
68.47831165147161
50.44682632183457
53.346150544789936
54.89665864159554
57.453461463986294
60.315361105727725
61.76638658060782
59.57943494114817
55.81513848573581
52.04546536258695
49.31105194835067
47.74348189207969
47.46290993581831
48.260392601988464
49.76832815403682
51.26274282511331
51.72977428027696
51.59566462916222
52.01391896305712
53.32280953381988
54.909008878196666
56.3378398670555
57.54269956466333
58.190365662886876
58.63012619889858
58.99186383425608
59.090613200042036
59.080785002100924
59.025185778555375
58.90114209294384
58.87061096306812
58.8992311974355
58.95108579981922
58.18322616905837
56.774071384185724
53.4194816574621
53.04571727151609
60.023040129236556
59.256295210258905
50.399516451853124
72.92542880768463
52.78103625149139
56.20432491797745
57.76756156696516
61.45973778246899
62.93734969285305
62.80572266621377
58.58991141194543
54.4346078114838
50.579595465367476
47.63048159658016
46.08565370812919
45.94953461403371
47.062236875760604
49.01781831468206
51.17611263893736
52.93201950410656
54.13203051973868
55.44534410843377
56.97208543434954
57.827827317301335
58.60427290959322
59.19838902068061
59.68831748636829
60.07449861456683
60.40872634688064
60.63984982732394
60.819456757440555
60.89638839395498
60.84510351616461
60.66551641446889
60.38303236061639
59.997307090476596
58.76977076692149
56.90459197718111
53.42609198594665
53.32661810992786
54.056212906545184
53.9491396401217
54.59673237693968
77.08913698346042
57.95436377885871
64.35089627427305
62.90531419083614
62.715255639325825
61.51824631721281
58.81340733058885
55.01297929588499
50.79295770974408
47.090396461150895
44.649273321574206
43.85276360154028
44.63639876458569
46.73560951154042
49.698913081735796
53.001859878709325
55.33497025179092
56.608612465124175
57.72418603416315
58.707674397421876
59.55946936610145
60.22881254708761
60.74249933280005
61.15263715550473
61.45973778246899
61.68976776831721
61.868499190887945
61.94504891361749
61.91953566919983
61.7919196627144
61.510877800376235
61.10141111082614
60.63984982732394
60.023040129236556
58.02392941087591
54.77007901580115
53.50484221665581
52.8172090604191
51.417404969201634
56.11454447642156
82.64614263497076
74.36739656353218
72.2607688596598
67.23517196260956
64.28181815235374
60.14365331891421
54.70707556578251
49.02532227605875
44.30930754632357
41.3488728161914
40.46671302672181
41.585204929501025
44.33846192021778
48.27844920892696
53.017003151814734
55.51703111510557
57.28344120630297
58.68182695372252
59.791353115272884
60.61418045117236
61.25505307323405
61.76638658060782
62.149033561550986
62.429152762362754
62.632606807223084
62.75964773156872
62.81043833866542
62.81043833866542
62.73424688582073
62.58176490205399
62.30187824248799
61.89401909133424
61.43416306150737
60.89638839395498
60.30593436607154
59.71407999862549
58.456607528466876
57.72941842079968
54.45050001554338
49.94336690843853
89.34410667493957
85.05417900813784
78.44545941039087
70.01605473601458
59.78351617677807
48.389575332967766
39.43829731037529
34.09029529119867
32.22365252800458
33.26715954912153
36.63528461564876
41.804360656104215
48.09138028673254
52.915056148069894
55.82906089998895
58.26800878709181
59.81710597771857
60.89638839395498
61.66422167847334
62.250943884847715
62.70884235969208
62.908471099967414
62.8782235181405
62.84163475496013
62.749556954781404
62.57229198077903
62.336161418261675
62.00290634473981
61.61108820953718
61.11448523156057
60.52944026665855
59.87869728758267
59.286527184973494
58.577977961859844
57.80178808268687
57.11065274990799
56.56626517610553
56.19384731178751
55.48918357602834
53.93401419809514
98.97845893822598
66.8508564864793
31.469210882602653
8.16642160679612
5.537079382253268
12.296707735354204
23.60195877776941
35.59843140823716
43.90796926187744
50.60248206898262
54.814657494243576
57.646438693206434
59.067988789277834
59.92059353515018
60.60014584981425
61.06696735260054
61.37691676290837
61.581544144864445
61.644870730575924
61.627126289611944
61.56190914831899
61.44131019750547
61.27973222034361
61.06797346496089
60.82904522352858
60.542678624113115
60.27458244821551
60.017599298675606
59.818039696611784
59.65479849254359
59.579568996047705
59.537964667842864
59.50033649729967
59.60901430541986
60.06088633847688
61.71009934115138
67.5800805272701
59.36709049222682
92.56548319293555
26.028682370992925
5.0286344016984685
11.673471009868905
21.869104909859658
30.3377485431442
37.71244650206627
43.85812477076873
48.78410511475854
52.54581561481778
55.14029965222117
56.9384298686879
58.23176784535733
59.14981270281335
59.78985648934499
60.21737551332481
60.511358990348775
60.680203040511714
60.78854407157523
60.85072139971796
60.879269577898576
60.893916015717444
60.866302813412915
60.82187527007156
60.76213992400326
60.6928941043449
60.62585032739978
60.583434341833225
60.621096524969694
60.75885226224046
61.12476436484358
61.68891334583781
62.33105059249198
62.94204537717998
63.70289077595041
66.89220669454295
61.48601014729637
66.16199174650137
20.980288580519485
26.529444065652328
21.688644247688515
7.65693981732403
21.08139803889199
30.066971636189876
36.47035655869754
41.74108901616509
46.17157380171735
49.85348555249663
52.86362828435873
55.206810078051916
56.902916811164225
58.08750638538898
58.86567947650784
59.33099904300514
59.5681970618113
59.67060031558988
59.67375704591546
59.661028508763955
59.62497736373876
59.629079454293596
59.635238375109495
59.63600898154178
59.684791960988974
59.728221323356586
59.82525280494173
59.93270920881883
60.12328161649126
60.36676632723148
60.74354227928252
61.354349092139266
62.36967831897214
64.17886058592231
65.77785425709733
66.02639191260566
66.2744218213011
62.320400064567465
62.52396866630948
57.28096758758144
)
;

boundaryField
{
    ".*"
    {
        type            zeroGradient;
    }
}


// ************************************************************************* //
