// -*- C++ -*-
// File generated by PyFoam - sorry for the ugliness

FoamFile
{
 version 2.0;
 format ascii;
 class volScalarField;
 location "2000";
 object T;
}

dimensions [ 0 0 0 1 0 0 0 ];

internalField nonuniform List<scalar> 459
(
  302.679
  302.398
  302.383
  302.379
  302.375
  302.371
  302.366
  302.36
  302.351
  302.341
  302.331
  302.322
  302.318
  302.318
  302.326
  302.455
  302.429
  302.419
  302.423
  302.428
  302.433
  302.437
  302.442
  302.447
  302.452
  302.456
  302.461
  302.466
  302.47
  302.475
  302.479
  302.484
  302.491
  302.515
  302.864
  302.439
  302.411
  302.412
  302.414
  302.413
  302.41
  302.402
  302.386
  302.363
  302.34
  302.32
  302.307
  302.302
  302.302
  302.301
  302.296
  302.458
  302.411
  302.403
  302.406
  302.412
  302.418
  302.42
  302.422
  302.423
  302.425
  302.426
  302.427
  302.429
  302.43
  302.433
  302.437
  302.444
  302.455
  302.496
  303.059
  302.492
  302.445
  302.453
  302.465
  302.474
  302.477
  302.468
  302.442
  302.402
  302.36
  302.325
  302.304
  302.296
  302.297
  302.301
  302.303
  302.387
  302.385
  302.393
  302.406
  302.419
  302.429
  302.428
  302.427
  302.427
  302.427
  302.426
  302.426
  302.426
  302.426
  302.426
  302.43
  302.435
  302.444
  302.488
  303.256
  302.559
  302.483
  302.496
  302.523
  302.548
  302.563
  302.554
  302.511
  302.446
  302.38
  302.329
  302.299
  302.29
  302.294
  302.304
  302.313
  302.329
  302.349
  302.375
  302.401
  302.426
  302.447
  302.463
  302.475
  302.487
  302.497
  302.506
  302.513
  302.518
  302.523
  302.526
  302.526
  302.494
  302.467
  302.455
  302.49
  303.448
  302.646
  302.531
  302.539
  302.577
  302.62
  302.654
  302.638
  302.573
  302.477
  302.39
  302.325
  302.29
  302.281
  302.291
  302.31
  302.331
  302.355
  302.382
  302.413
  302.444
  302.472
  302.496
  302.515
  302.532
  302.546
  302.557
  302.566
  302.572
  302.573
  302.572
  302.567
  302.557
  302.532
  302.498
  302.471
  302.487
  302.586
  302.628
  302.635
  303.621
  302.76
  302.616
  302.603
  302.642
  302.7
  302.731
  302.689
  302.596
  302.483
  302.379
  302.307
  302.271
  302.269
  302.291
  302.323
  302.359
  302.394
  302.431
  302.468
  302.501
  302.531
  302.554
  302.573
  302.588
  302.601
  302.61
  302.617
  302.62
  302.618
  302.611
  302.6
  302.585
  302.561
  302.527
  302.494
  302.49
  302.531
  302.55
  302.59
  303.783
  302.94
  302.802
  302.775
  302.791
  302.828
  302.795
  302.697
  302.563
  302.428
  302.32
  302.256
  302.237
  302.256
  302.299
  302.352
  302.405
  302.454
  302.497
  302.535
  302.568
  302.594
  302.614
  302.63
  302.642
  302.651
  302.658
  302.661
  302.66
  302.655
  302.644
  302.628
  302.61
  302.586
  302.556
  302.523
  302.509
  302.52
  302.533
  302.566
  304.016
  303.389
  303.24
  303.157
  303.091
  302.969
  302.793
  302.595
  302.412
  302.272
  302.191
  302.17
  302.197
  302.256
  302.333
  302.412
  302.48
  302.534
  302.577
  302.609
  302.634
  302.654
  302.669
  302.68
  302.688
  302.693
  302.695
  302.695
  302.692
  302.686
  302.675
  302.659
  302.641
  302.62
  302.597
  302.574
  302.567
  302.585
  302.611
  302.768
  304.351
  304.054
  303.757
  303.447
  303.093
  302.697
  302.359
  302.119
  301.988
  301.955
  301.997
  302.088
  302.198
  302.312
  302.424
  302.518
  302.578
  302.62
  302.65
  302.673
  302.691
  302.704
  302.713
  302.72
  302.724
  302.725
  302.725
  302.723
  302.721
  302.718
  302.716
  302.716
  302.719
  302.727
  302.745
  302.774
  302.813
  302.853
  302.881
  302.952
  293.385
  295.332
  297.263
  298.708
  299.761
  300.557
  301.165
  301.622
  301.962
  302.223
  302.385
  302.494
  302.573
  302.628
  302.666
  302.692
  302.711
  302.726
  302.736
  302.743
  302.748
  302.751
  302.753
  302.754
  302.755
  302.755
  302.756
  302.757
  302.759
  302.761
  302.767
  302.777
  302.792
  302.815
  302.841
  302.866
  302.886
  302.935
  294.563
  297.002
  299.176
  300.279
  300.98
  301.475
  301.833
  302.104
  302.309
  302.46
  302.561
  302.629
  302.676
  302.708
  302.73
  302.745
  302.756
  302.763
  302.768
  302.771
  302.773
  302.775
  302.776
  302.777
  302.778
  302.779
  302.78
  302.781
  302.783
  302.785
  302.79
  302.797
  302.807
  302.822
  302.839
  302.858
  302.882
  302.91
  298.257
  298.181
  298.175
  300.487
  301.415
  301.815
  302.062
  302.249
  302.396
  302.511
  302.6
  302.666
  302.712
  302.744
  302.766
  302.781
  302.791
  302.798
  302.802
  302.805
  302.806
  302.807
  302.807
  302.806
  302.806
  302.805
  302.805
  302.804
  302.804
  302.803
  302.803
  302.804
  302.805
  302.808
  302.813
  302.823
  302.833
  302.841
  302.902
  303.005
)
;

boundaryField
{
  floor
  {
    type wallHeatTransfer;
    Tinf uniform 305.2;
    alphaWall uniform 0.24;
    value nonuniform List<scalar> 29
(
  302.598
  302.951
  302.869
  302.826
  302.831
  302.845
  302.864
  302.888
  302.914
  302.939
  302.964
  302.988
  303.011
  303.034
  303.055
  303.076
  303.098
  303.122
  303.139
  303.19
  303.19
  303.065
  303.003
  302.97
  302.598
  302.951
  302.931
  302.689
  302.561
)
;
  }
  ceiling
  {
    type wallHeatTransfer;
    Tinf uniform 303.2;
    alphaWall uniform 0.24;
    value nonuniform List<scalar> 43
(
  298.58
  298.494
  298.478
  300.642
  301.52
  301.9
  302.133
  302.311
  302.451
  302.562
  302.648
  302.714
  302.761
  302.794
  302.817
  302.834
  302.845
  302.853
  302.859
  302.862
  302.864
  302.865
  302.865
  302.864
  302.863
  302.862
  302.86
  302.858
  302.856
  302.854
  302.852
  302.85
  302.85
  302.85
  302.852
  302.859
  302.868
  302.878
  302.934
  303.024
  304.299
  304.021
  295.074
)
;
  }
  sWall
  {
    type wallHeatTransfer;
    Tinf uniform 315.2;
    alphaWall uniform 0.36;
    value uniform 299.871;
  }
  nWall
  {
    type wallHeatTransfer;
    Tinf uniform 307.2;
    alphaWall uniform 0.36;
    value nonuniform List<scalar> 6
(
  303.442
  303.379
  303.288
  303.532
  303.496
  303.594
)
;
  }
  sideWalls
  {
    type empty;
  }
  glass1
  {
    type wallHeatTransfer;
    Tinf uniform 315.2;
    alphaWall uniform 4.3;
    value nonuniform List<scalar> 9
(
  311.124
  310.436
  310.007
  309.685
  309.419
  309.18
  309.011
  309.098
  309.351
)
;
  }
  glass2
  {
    type wallHeatTransfer;
    Tinf uniform 307.2;
    alphaWall uniform 4.3;
    value nonuniform List<scalar> 2
(
  305.469
  305.605
)
;
  }
  sun
  {
    type wallHeatTransfer;
    Tinf uniform 305.2;
    alphaWall uniform 0.24;
    value nonuniform List<scalar> 14
(
  302.935
  302.663
  302.646
  302.633
  302.621
  302.609
  302.598
  302.586
  302.575
  302.564
  302.556
  302.553
  302.559
  302.573
)
;
  }
  heatsource1
  {
    type fixedGradient;
    gradient uniform 0;
  }
  heatsource2
  {
    type fixedGradient;
    gradient uniform 0;
  }
  Table_master
  {
    type zeroGradient;
  }
  Table_slave
  {
    type zeroGradient;
  }
  inlet
  {
    type fixedValue;
    value uniform 290.15;
  }
  outlet
  {
    type zeroGradient;
  }
} 	// ************************************************************************* //

