/*--------------------------------*- C++ -*----------------------------------*=========                 |
  \      /  F ield         | OpenFOAM: The Open Source CFD Toolbox
   \    /   O peration     | Website:  https://openfoam.org
    \  /    A nd           | Version:  6
     \/     M anipulation  |
\*---------------------------------------------------------------------------*/
FoamFile
{
    version     2.0;
    format      ascii;
    class       volScalarField;
    location    "600";
    object      PMV;
}
// * * * * * * * * * * * * * * * * * * * * * * * * * * * * * * * * * * * * * //

dimensions      [0 0 0 0 0 0 0];

internalField   nonuniform List<scalar> 
459
(
1.4864434317451896
1.2554471423643945
1.2260908897664673
1.2022663657431876
1.1877144706348273
1.1828417817773753
1.1868019794584614
1.1997711260850212
1.2228574461699504
1.2580733871497902
1.3079778896312129
1.3737541849721373
1.3799165545304748
1.3880398565104364
1.4028520931407136
1.4897900678430798
1.4754626913057822
1.470209000678606
1.4745074874142727
1.4797610390634393
1.4850144189004857
1.4852936023017504
1.478516622083954
1.4773637889176419
1.479194420514007
1.4818463740404708
1.4849915287938213
1.4887492091696608
1.493519783712545
1.5008099078839678
1.5129349417466336
1.5330823978878758
1.5418348543211857
1.5590197900552754
1.4322503717438673
1.2764446599383659
1.266935371254129
1.245385005556227
1.2335265597787326
1.2300363931017602
1.2336573600813767
1.240905220378811
1.253449082562714
1.274080387552923
1.3061924154301874
1.3510506532670146
1.375137992309319
1.3799165545304748
1.385650683536445
1.3842171663041214
1.3823057943854744
1.4621762745077016
1.4611340498262606
1.4587458229637797
1.4644775103687806
1.4659067963088086
1.4625994513736764
1.4616485298556217
1.4629555052666279
1.4658662786398602
1.4679495270376894
1.469778913318978
1.4721965301926105
1.4748044720831952
1.4776897990045743
1.4825699734629347
1.4933137125954343
1.5157048284186097
1.5270350102042942
1.526516799254318
1.4655700970632952
1.2774166897366712
1.306340831678273
1.298208673345278
1.2968234696136003
1.2990893433880655
1.3027007853154968
1.2992546926626518
1.2912826878145836
1.2870272480224676
1.2951109827963412
1.319551398303871
1.364459139510547
1.378960850860823
1.3832614825698706
1.3846950064988655
1.3762593805591554
1.3637911139437104
1.3988664969239666
1.4062131215294336
1.417403733845161
1.4332876249606465
1.4452776183674259
1.4493285908338205
1.4626737006292854
1.4732712295112214
1.4792319432226495
1.4831947861156596
1.4863687748604408
1.4889402311756497
1.4908405164048073
1.4883789306156776
1.4932695224217585
1.5136682410310733
1.5076864357886786
1.4601564325564018
1.5371340497874377
1.2812530438327232
1.3374989382558244
1.354959423746238
1.3792750422241438
1.3987605752241692
1.3996216791174452
1.3677199515787135
1.321761475334384
1.2862272887785589
1.272473792464553
1.2862155129645796
1.3217594162734079
1.3663427452792714
1.3880398565104364
1.3712929191070629
1.3256108213419504
1.2912330926063893
1.3145945831975046
1.3499167713450249
1.3841585809953756
1.4172307793693206
1.4496019156292685
1.4767839622203756
1.4928382097248318
1.4958280457339717
1.4990198608440701
1.5048846024582219
1.511750455464822
1.5203746612239317
1.532291234728694
1.5492905437900804
1.5774702327806793
1.5618837337274554
1.5408442039544397
1.492765025509523
1.4152747486195842
1.6257116424974747
1.2997485320606663
1.3666703316508524
1.4116904590947508
1.4817448307617238
1.5337190024686964
1.4938282670141512
1.4026203701817714
1.3212862906323766
1.2676657905523099
1.2458889138188043
1.2556203545026465
1.2909664155287446
1.3368327763649983
1.3719796661321149
1.3775917310126522
1.360181551601164
1.3575426225923535
1.3733512520282438
1.4043059411212828
1.4422335375264805
1.4809551587066239
1.517191865650443
1.548096442546691
1.5715035840224154
1.582619346370529
1.590199821734578
1.5962261602406298
1.6003938215425886
1.6030317519222341
1.604970195646597
1.6074464086077882
1.60833940248012
1.5870419545534995
1.5497840782529266
1.4802229982777575
1.4668405498649086
1.628689366488054
1.6238028191977087
1.4518367273345405
1.7164972185539789
1.3414411085169424
1.4217801468285658
1.4740505508276747
1.5504275928167306
1.5755862044302524
1.4682862222147874
1.372892610586962
1.2901905787258292
1.2342973398641366
1.214873781929152
1.2313749039571311
1.2763802238830058
1.3354002553283126
1.3893771110952922
1.4214053857919122
1.4321485923850867
1.4447373182631422
1.469207118179135
1.503905504814164
1.5423122427062788
1.5666568359154562
1.5881322315515893
1.6057881933468596
1.621056137640704
1.6329828357677236
1.6425232978570778
1.649201137869356
1.6525399065460205
1.6520629458095855
1.649201137869356
1.6430002997244149
1.6339369181549195
1.6070935700719249
1.5624001321121992
1.4882395780052273
1.4810778116514376
1.506840317465928
1.5104888834115644
1.527854731849963
1.8095980952697548
1.4396829524252717
1.5829568100458826
1.573848517548052
1.5525728080046413
1.4880471169083127
1.3980660649324892
1.3015013955830415
1.2224832511440153
1.1793818309348263
1.179928425274996
1.2190499243926027
1.288204519780111
1.3733241767541498
1.4534916053642835
1.4826265404110635
1.5060261767337995
1.5279898853717833
1.5509049514028932
1.5747693070185333
1.5986306764478895
1.6196248515284084
1.6382301897038922
1.6525399065460205
1.664463244302479
1.6730472252520963
1.6792463310825156
1.6830609813918604
1.6835378027506758
1.680676841466293
1.674000957795344
1.6654170542568645
1.6534938217831063
1.6372761434289218
1.592656792367292
1.5243602566156673
1.4957422955891948
1.4857926626145088
1.4618820590709962
1.552358197499077
1.9449304165301637
1.778397392668679
1.7353323825245892
1.6295808868137192
1.5356228790567494
1.410415380074212
1.2776453523915619
1.1691573789452616
1.1093401478519862
1.1065480682237767
1.1547257162564697
1.2403019394083283
1.3537243037371334
1.4601787631431271
1.5098461863316464
1.5470860360383356
1.5738147590572364
1.5948131629788524
1.6148537720056655
1.6348909925451003
1.6534938217831063
1.6701859756796995
1.6830609813918604
1.6930737621876644
1.700225140294382
1.7049924399673673
1.7073760032614729
1.7073760032614729
1.705469157257977
1.7011786186150477
1.6940273087670203
1.6844914388249153
1.6735240926083055
1.6587402062849212
1.6415692880184973
1.6243957370342441
1.6069070914890382
1.5973911252078246
1.5335670137646007
1.439354473408759
2.149258774638939
2.023680337288829
1.8664757368389628
1.6442530007157543
1.3384400371139118
1.0938074360750165
0.9494509058574854
0.9053201027262651
0.9490173313105221
1.0589976803287715
1.2050393892168216
1.371789852358048
1.4649551421269866
1.5456539153688633
1.5909955317184892
1.6186706510828257
1.6387072098165356
1.6563555174610538
1.6725703557287894
1.6873522937465666
1.6981236069404249
1.702156969241399
1.704634698018846
1.7049338165838606
1.704304855495716
1.7016741463983809
1.697250300445417
1.690030830537079
1.680526859784201
1.669119978145875
1.6549788192240307
1.6402939267047718
1.6251575028326632
1.607601179741852
1.5891748696319985
1.573782207595369
1.5648841724336653
1.5606699614941828
1.550328707755123
1.5219103014079243
-2.935607728270565
-2.1108429549459453
-1.2293432483340683
-0.3606357074162649
0.2684269988305447
0.7401382602743274
1.0739233881399266
1.3053593074888161
1.4496702548113958
1.5272670270146904
1.5594114278914688
1.5906244848739866
1.6144173566798083
1.6328352776722825
1.6485938905386859
1.6622404916697835
1.6734385051435279
1.681565765078835
1.6864368196966033
1.687842969911582
1.6870448862622514
1.6843222756861842
1.6802193083766879
1.674995652858906
1.6689352175995866
1.6620280657799458
1.6554329246735406
1.6489409614306523
1.642896290491065
1.6383338776506209
1.6345217578361158
1.6316252264373212
1.6291958905728072
1.630731973658801
1.6431248239265437
1.6818999914725534
1.7681322478722474
1.607103825782717
-2.433691292330645
-0.900142118278525
0.15690169835508147
0.6836484430306143
0.9588740766273148
1.155006848128405
1.29786027300505
1.408098205802762
1.486195937726652
1.5387875438108864
1.5770929532165057
1.6052828881872923
1.626384642484556
1.6423900564182574
1.6552322962400374
1.6648847104115512
1.6723439496034471
1.6772518866241102
1.6798387520252793
1.6803418916759867
1.6794473410524973
1.6782465182746888
1.6765086830803466
1.6740939407096969
1.6714667267906003
1.668688262751837
1.6659716567348353
1.663675041530596
1.6628303323767128
1.6648989381692698
1.6703377392535632
1.6804027615196007
1.690772432549989
1.7001029192250023
1.7128276116440926
1.753982191801109
1.6921634120288114
1.6453322921879365
-0.7172258353892026
-0.8460694871023651
-0.7350455420651649
0.5094902268339446
1.0007362578993175
1.194077192129751
1.3093980299811192
1.3966023462826025
1.4666153370791628
1.5229836219855069
1.5667770021109075
1.600198457532174
1.6248695121610701
1.6431768182289554
1.6561573815056632
1.6655924295922067
1.6717077795184843
1.6751544505220703
1.6761677704520304
1.6751341450020703
1.6730143294159556
1.6702100492418455
1.6680051477450257
1.6655251184373203
1.66363023040078
1.66225642337017
1.6610237369525302
1.661179447019154
1.662596016259433
1.6655224679974105
1.671370174348251
1.6819190269215112
1.7027542436062177
1.7417141690256805
1.7631342060425137
1.7688510531523867
1.7327650717617664
1.69174192124095
1.6537154553823725
1.6646945019048103
)
;

boundaryField
{
    ".*"
    {
        type            zeroGradient;
    }
}


// ************************************************************************* //
