/*--------------------------------*- C++ -*----------------------------------*\
  =========                 |
  \\      /  F ield         | OpenFOAM: The Open Source CFD Toolbox
   \\    /   O peration     | Website:  https://openfoam.org
    \\  /    A nd           | Version:  6
     \\/     M anipulation  |
\*---------------------------------------------------------------------------*/
FoamFile
{
    version     2.0;
    format      ascii;
    class       volScalarField;
    location    "1300";
    object      alphat;
}
// * * * * * * * * * * * * * * * * * * * * * * * * * * * * * * * * * * * * * //

dimensions      [1 -1 -1 0 0 0 0];

internalField   nonuniform List<scalar> 
459
(
0.00132785
0.00145546
0.00148336
0.00155672
0.00162563
0.00169113
0.00175668
0.00181612
0.00185558
0.00186816
0.00184793
0.00179112
0.00169625
0.00156811
0.0014225
0.00060099
0.0007243
0.000815683
0.000816554
0.000791121
0.000755723
0.000709133
0.000662429
0.000619968
0.000582278
0.000548921
0.000519313
0.000493018
0.000469433
0.000447737
0.000426889
0.000405469
0.000392746
0.000360485
0.00180704
0.00453298
0.00438098
0.00511318
0.00583502
0.00654492
0.00714259
0.00761769
0.00803683
0.00836647
0.00856452
0.00858843
0.00837493
0.00776161
0.00607446
0.00146089
0.000868238
0.000636076
0.00134704
0.00189127
0.00229796
0.00252228
0.00251606
0.00199313
0.00171143
0.0015123
0.00136036
0.00124001
0.00114224
0.00105793
0.000979588
0.000903591
0.000835893
0.000775909
0.000928231
0.000478935
0.00220143
0.00619402
0.00546209
0.00682785
0.00751748
0.00803277
0.00843385
0.00878018
0.00914691
0.00951634
0.00984072
0.010066
0.0101304
0.00992571
0.00914557
0.00690328
0.00150838
0.00121996
0.0018016
0.00235508
0.0028726
0.00323372
0.00314567
0.00100573
0.000886632
0.000791025
0.000714027
0.000651431
0.00059999
0.000557384
0.000522146
0.000493744
0.000534923
0.000620666
0.00105708
0.000560395
0.00257611
0.00787411
0.00552164
0.0072237
0.00781091
0.00803278
0.00820383
0.00842488
0.00874671
0.00914976
0.00956985
0.00993974
0.0101874
0.0102215
0.00997607
0.00908989
0.00612059
0.00177426
0.00222054
0.00290704
0.00360033
0.00416613
0.00451198
0.00420657
0.00113291
0.00103145
0.000959328
0.000904134
0.000856545
0.000812664
0.000770308
0.000725766
0.000674096
0.000632003
0.000653235
0.00124886
0.000620145
0.00295532
0.0100039
0.00611226
0.00702382
0.00775591
0.00782875
0.00781675
0.00798661
0.00828226
0.008712
0.00918887
0.0096218
0.00990448
0.00997685
0.00983729
0.00944811
0.00857719
0.00714329
0.00666916
0.00654812
0.00653392
0.0065207
0.00644582
0.00616035
0.00513822
0.00465385
0.00437037
0.00414909
0.00391793
0.0035898
0.00315822
0.00264735
0.00209213
0.0015483
0.0011467
0.00121555
0.000818218
0.000753485
0.00089889
0.00100762
0.00335515
0.0123105
0.00836228
0.00717644
0.00771448
0.00782954
0.00778652
0.00789323
0.00812701
0.0085241
0.00903249
0.00951452
0.0098187
0.00985768
0.00965476
0.00932275
0.00897556
0.00866365
0.0085049
0.00836015
0.00815537
0.00789731
0.00759592
0.00722723
0.00672525
0.00629538
0.00592942
0.00559122
0.00525718
0.00489858
0.00444703
0.00388539
0.00321823
0.00249425
0.00186672
0.00139094
0.00109821
0.000970148
0.00140087
0.00105887
0.0037096
0.0138716
0.0115051
0.00922685
0.0088397
0.00850855
0.00817
0.0080415
0.00819626
0.00861995
0.00919657
0.00973229
0.0100354
0.0100069
0.00970097
0.00932587
0.00913029
0.00916309
0.00920481
0.00905889
0.00872184
0.00827019
0.00775967
0.00722178
0.00668733
0.00622
0.00581435
0.00545197
0.00512748
0.00484556
0.00460247
0.00422797
0.00369597
0.00305738
0.0024607
0.00192657
0.00158194
0.00152468
0.00160496
0.00123192
0.00376773
0.0120857
0.0109193
0.0100959
0.00930144
0.00851156
0.0080318
0.00798485
0.00835184
0.0090092
0.00974698
0.0103163
0.0105255
0.0103235
0.00984974
0.00942579
0.00933081
0.00943467
0.0093074
0.00888651
0.00827361
0.00757085
0.00686101
0.00621382
0.0056737
0.00524418
0.00489871
0.00461997
0.00440624
0.00426411
0.00420051
0.00417213
0.0038664
0.00345049
0.00310303
0.00297103
0.00320953
0.00391592
0.00488184
0.00188041
0.00365684
0.0043151
0.00475735
0.00486956
0.00512665
0.00569192
0.00658075
0.00772897
0.00898363
0.0101357
0.0109634
0.0112839
0.0110605
0.0104445
0.00980178
0.0094595
0.00924984
0.00895108
0.00841278
0.00766668
0.00682698
0.00601113
0.00530839
0.00475639
0.00434179
0.00402637
0.00377536
0.00356791
0.00339141
0.0032359
0.00309286
0.00296371
0.00286434
0.00280074
0.00279412
0.0028277
0.00281615
0.00268646
0.00248941
0.0017251
0.00174889
0.00441199
0.00793783
0.0102143
0.0117044
0.0126084
0.0129761
0.0128943
0.0124562
0.0117687
0.0107872
0.00982233
0.00911785
0.00861372
0.00806138
0.00736689
0.00657243
0.0057598
0.00500467
0.00438363
0.0039184
0.00358253
0.00333735
0.00315175
0.00300682
0.00289329
0.00280797
0.00275206
0.00273074
0.00274145
0.00276947
0.00280967
0.00284741
0.00284475
0.00274609
0.00253472
0.00222268
0.00139017
0.00263509
0.0080704
0.0110384
0.0117853
0.0119954
0.0118021
0.01124
0.0104564
0.00958676
0.0087549
0.00797354
0.00732
0.0067614
0.00618223
0.00555836
0.0049401
0.00437178
0.00388094
0.00347933
0.00316491
0.00293302
0.00276586
0.00264895
0.00257382
0.00253547
0.00252922
0.00254842
0.00258628
0.00265381
0.00274456
0.00285291
0.00296855
0.00307064
0.00314343
0.00312737
0.00312155
0.002795
0.00140774
0.00232624
0.00246719
0.00256881
0.00274545
0.00262537
0.00251901
0.00243405
0.00231402
0.00215371
0.00196245
0.00175037
0.00153677
0.00134779
0.00119749
0.00108476
0.00100128
0.000938774
0.0008916
0.00085696
0.000833788
0.000821479
0.000818401
0.000822333
0.000832414
0.000848117
0.000869217
0.000895755
0.000928083
0.000967045
0.00101387
0.00106764
0.00112893
0.00119811
0.00127562
0.00136115
0.00147682
0.00150677
0.00146789
0.00136893
0.0012616
)
;

boundaryField
{
    floor
    {
        type            compressible::alphatWallFunction;
        Prt             0.85;
        value           nonuniform List<scalar> 
29
(
0.000200487
8.44864e-05
0.000102725
0.000115998
0.000116124
0.00011245
0.000107312
0.000100505
9.36263e-05
8.73217e-05
8.16809e-05
7.66512e-05
7.21549e-05
6.81348e-05
6.45063e-05
6.11479e-05
5.79013e-05
5.45445e-05
5.25401e-05
4.74194e-05
4.74188e-05
6.59707e-05
7.83852e-05
8.73481e-05
0.000200485
8.44853e-05
8.97174e-05
0.00017286
0.000247469
)
;
    }
    ceiling
    {
        type            compressible::alphatWallFunction;
        Prt             0.85;
        value           nonuniform List<scalar> 
43
(
0.000319077
0.000337082
0.000349997
0.000372475
0.000357375
0.000343912
0.000333108
0.000317767
0.000297136
0.000272301
0.000244448
0.000216017
0.000190492
0.000169904
0.000154269
0.00014257
0.000133736
0.000127023
0.000122067
0.000118738
0.000116965
0.000116521
0.000117088
0.00011854
0.000120797
0.000123822
0.000127615
0.000132218
0.00013774
0.000144342
0.00015188
0.000160419
0.000169994
0.000180646
0.000192317
0.00020797
0.000212001
0.000206767
0.000193376
0.00017873
0.000485745
0.000565522
0.000358152
)
;
    }
    sWall
    {
        type            compressible::alphatWallFunction;
        Prt             0.85;
        value           uniform 0.000317803;
    }
    nWall
    {
        type            compressible::alphatWallFunction;
        Prt             0.85;
        value           nonuniform List<scalar> 6(0.000143112 0.000150295 0.00017428 0.00019591 0.000198289 0.00017838);
    }
    sideWalls
    {
        type            empty;
    }
    glass1
    {
        type            compressible::alphatWallFunction;
        Prt             0.85;
        value           nonuniform List<scalar> 9(0.000182869 0.000246132 0.000296956 0.000344433 0.000391817 0.000441142 0.000484414 0.000491618 0.000478408);
    }
    glass2
    {
        type            compressible::alphatWallFunction;
        Prt             0.85;
        value           nonuniform List<scalar> 2(0.000259434 0.000239154);
    }
    sun
    {
        type            compressible::alphatWallFunction;
        Prt             0.85;
        value           nonuniform List<scalar> 
14
(
0.000187659
0.000204946
0.000208706
0.000218555
0.000227761
0.000236471
0.000245151
0.00025299
0.000258177
0.000259829
0.000257171
0.000249693
0.000237146
0.000220074
)
;
    }
    heatsource1
    {
        type            compressible::alphatWallFunction;
        Prt             0.85;
        value           nonuniform List<scalar> 3(0.000107141 0.000128091 0.000143493);
    }
    heatsource2
    {
        type            compressible::alphatWallFunction;
        Prt             0.85;
        value           nonuniform List<scalar> 4(0.000205851 0.000123715 0.000123714 0.000212246);
    }
    Table_master
    {
        type            compressible::alphatWallFunction;
        Prt             0.85;
        value           nonuniform List<scalar> 9(0.000143226 0.000126341 0.000112592 0.000101375 9.21482e-05 8.44844e-05 7.80756e-05 7.2729e-05 6.83869e-05);
    }
    Table_slave
    {
        type            compressible::alphatWallFunction;
        Prt             0.85;
        value           nonuniform List<scalar> 9(0.000161005 0.000146844 0.00013668 0.000128841 0.000122037 0.000115723 0.00010959 0.000103096 9.55029e-05);
    }
    inlet
    {
        type            fixedValue;
        value           uniform 1.94e-05;
    }
    outlet
    {
        type            zeroGradient;
    }
}


// ************************************************************************* //
