/*--------------------------------*- C++ -*----------------------------------*\
  =========                 |
  \\      /  F ield         | OpenFOAM: The Open Source CFD Toolbox
   \\    /   O peration     | Website:  https://openfoam.org
    \\  /    A nd           | Version:  6
     \\/     M anipulation  |
\*---------------------------------------------------------------------------*/
FoamFile
{
    version     2.0;
    format      ascii;
    class       surfaceScalarField;
    location    "1300";
    object      phi;
}
// * * * * * * * * * * * * * * * * * * * * * * * * * * * * * * * * * * * * * //

dimensions      [1 0 -1 0 0 0 0];

internalField   nonuniform List<scalar> 
852
(
-0.0030428
0.00310294
-0.00411966
0.00107687
-0.00491899
0.000799341
-0.00552798
0.00060901
-0.0059139
0.000385928
-0.00605229
0.000138396
-0.00592172
-0.000130549
-0.00551226
-0.000409456
-0.0048515
-0.000660743
-0.00400652
-0.000844972
-0.00306991
-0.000936593
-0.00213993
-0.000929976
-0.00130441
-0.000835502
-0.000606574
-0.000697829
-0.000604436
-0.000814858
0.000818653
-0.000478613
-0.000336239
0.000195024
-0.000673631
0.000731957
-0.000536926
0.00109342
-0.000361453
0.00132096
-0.000227539
0.00144431
-0.000123342
0.00150364
-5.93225e-05
0.00153602
-3.23824e-05
0.00155535
-1.9319e-05
0.00156574
-1.03889e-05
0.00156869
-2.94952e-06
0.0015625
6.19443e-06
0.00153868
2.38268e-05
0.00147411
6.45696e-05
0.00133015
0.000143962
0.00109532
0.000234839
0.000808143
0.000287175
0.000813253
-0.0021671
0.00543155
-0.00321266
0.00212244
-0.00403326
0.00161996
-0.00463288
0.00120864
-0.00501298
0.000766037
-0.00515782
0.000283252
-0.0050437
-0.000244662
-0.00466758
-0.000785559
-0.00406946
-0.00125885
-0.00332244
-0.00159198
-0.0025143
-0.00174472
-0.00172603
-0.00171824
-0.0010294
-0.00153212
-0.000498971
-0.00122825
-0.000267257
-0.00083614
6.33671e-05
-0.000330665
6.33238e-05
0.000371384
0.000458202
0.00080291
-0.000767757
0.00107147
-0.000942179
0.0013046
-0.00077005
0.00148464
-0.000541489
0.00159449
-0.000337382
0.00161237
-0.000141221
0.00161647
-6.34183e-05
0.00162164
-3.7547e-05
0.00162599
-2.36666e-05
0.00162882
-1.32146e-05
0.00163016
-4.2802e-06
0.00162916
7.19105e-06
0.00162215
3.08397e-05
0.00157881
0.000107916
0.00139331
0.000329466
0.00107757
0.000550582
0.000689838
0.000674908
0.00151604
-0.0015135
0.00719175
-0.00241447
0.00302342
-0.00313966
0.00234516
-0.00364994
0.00171893
-0.00397613
0.00109224
-0.00409644
0.000403574
-0.00396709
-0.000374008
-0.00358941
-0.00116322
-0.00302739
-0.00182085
-0.00236239
-0.00225696
-0.00167473
-0.00243237
-0.0010219
-0.00237105
-0.000450474
-0.00210353
5.55168e-06
-0.00168426
0.000307948
-0.00113853
0.000458734
-0.00048144
0.000522068
0.00160464
-0.00113476
0.00183306
-0.000996173
0.00178521
-0.000894321
0.00177323
-0.000758065
0.00179737
-0.000565628
0.00182568
-0.000365685
0.00168462
0.00162136
0.00158397
0.00156047
0.00154741
0.00154329
0.00155064
0.00158163
0.00168971
0.00138042
0.000638754
0.0010146
0.000916401
0.000575916
0.0011136
0.00211147
-0.00105295
0.00856392
-0.00176528
0.00373576
-0.00223958
0.00281947
-0.00256594
0.0020453
-0.0027645
0.00129081
-0.00279193
0.000431021
-0.00258374
-0.000582192
-0.00217422
-0.00157273
-0.00165769
-0.00233737
-0.00110969
-0.00280494
-0.00058811
-0.00295393
-0.000117283
-0.00284186
0.000289945
-0.00251075
0.000633103
-0.00202741
0.00094711
-0.00145252
0.00131688
-0.000851195
0.00217885
-0.000339898
0.00261324
-0.000423866
0.00218517
-0.000706673
0.00203965
-0.000850654
0.00191441
-0.000769068
0.00180716
-0.000650806
0.00174782
-0.000506287
0.00171641
-0.000334267
0.00186212
-0.000145865
0.0019556
-9.36248e-05
0.00203059
-7.51403e-05
0.00208663
-5.61962e-05
0.00210705
-2.05623e-05
0.00206854
3.83509e-05
0.00194534
0.000123053
0.00170418
0.000241001
0.00128807
0.000415963
0.00113213
0.000794694
0.000802669
0.00124586
0.000306412
0.00160986
0.00244337
-0.000734463
0.00967923
-0.00127278
0.00427409
-0.00135944
0.00290614
-0.00139815
0.00208402
-0.00138241
0.00127508
-0.00119941
0.000248036
-0.000830022
-0.000951571
-0.000392522
-0.00201021
2.61716e-05
-0.00275605
0.000381246
-0.00316
0.000662272
-0.00323494
0.000875264
-0.00305484
0.00104348
-0.00267895
0.00119195
-0.00217586
0.00135288
-0.00161345
0.00157134
-0.00106964
0.0018878
-0.000656355
0.00200128
-0.000537334
0.00190194
-0.000607323
0.0017106
-0.000659312
0.00154899
-0.000607451
0.00141699
-0.000518796
0.00132698
-0.000416278
0.00129402
-0.000301297
0.00134807
-0.000199914
0.00141102
-0.000156573
0.00147771
-0.000141826
0.001543
-0.000121492
0.0015938
-7.136e-05
0.00160781
2.43449e-05
0.00156362
0.000167241
0.00145034
0.000354276
0.00127115
0.000595154
0.00110931
0.000956537
0.000930145
0.00142503
0.000521576
0.00201843
0.000392233
0.00257272
-0.00111429
0.00150631
-0.00157743
0.000462934
-0.00152294
-0.000637168
0.0107493
-0.000999097
0.00463603
-0.000541261
0.00244832
-0.000108159
0.00165093
0.00028179
0.000885135
0.000790741
-0.000260907
0.00131014
-0.00147096
0.00168853
-0.00238858
0.00190451
-0.00297201
0.00197837
-0.00323384
0.00195238
-0.00320893
0.00185631
-0.00295875
0.00172828
-0.0025509
0.00160526
-0.00205284
0.00151748
-0.00152566
0.00148554
-0.00103769
0.00149887
-0.000669681
0.00145511
-0.000493568
0.00131438
-0.000466586
0.00112048
-0.000465405
0.000947934
-0.0004349
0.000815246
-0.000386105
0.000730063
-0.000331092
0.00070265
-0.000273883
0.00073295
-0.000230214
0.000793855
-0.000217477
0.000871523
-0.000219494
0.000959604
-0.000209574
0.00105083
-0.000162587
0.00112928
-5.41106e-05
0.00117536
0.000121163
0.00118883
0.000340805
0.00117859
0.000605393
0.00119399
0.000941141
0.00128831
0.0013307
0.00146987
0.00183687
0.00196447
0.00207812
0.00225114
0.00121964
0.00186494
0.000849135
0.000407173
-0.00066466
0.0118943
-0.000518061
0.00448944
0.000715805
0.00121446
0.001639
0.00072775
0.00249296
3.11833e-05
0.00327925
-0.00104719
0.00375705
-0.00194875
0.00392576
-0.00255727
0.00383246
-0.00287869
0.00354204
-0.0029434
0.00312668
-0.00279355
0.00265038
-0.00248243
0.00217126
-0.00207178
0.00173658
-0.00161814
0.00137454
-0.00116362
0.00109885
-0.000761999
0.000901015
-0.000471839
0.000731834
-0.000324382
0.000552684
-0.000287432
0.000373933
-0.000286652
0.00022233
-0.000283294
0.000110375
-0.000274149
4.26788e-05
-0.000263396
2.33148e-05
-0.000254519
4.82774e-05
-0.000255178
0.000101842
-0.000271043
0.000173201
-0.000290856
0.000260834
-0.000297208
0.000369097
-0.000270852
0.000502524
-0.00018754
0.000641681
-1.79955e-05
0.000776464
0.000206019
0.000922569
0.000459287
0.00111933
0.000744377
0.00141937
0.00103066
0.00189928
0.00135696
0.00264112
0.00133628
0.0032427
0.000618062
0.00330278
0.000789049
0.00377925
0.00277707
0.00965516
0.00355867
0.00370785
0.00417971
0.000593428
0.00518341
-0.000275938
0.00610668
-0.00089208
0.00656098
-0.00150147
0.00656955
-0.0019573
0.00620592
-0.00219361
0.00556109
-0.00223385
0.00473621
-0.00211849
0.00383089
-0.00188822
0.00292816
-0.00157969
0.00209536
-0.00123897
0.00137982
-0.000902595
0.000800207
-0.000584003
0.000367756
-0.000329546
7.16069e-05
-0.000175689
-0.000134363
-0.000118411
-0.000297837
-0.000123957
-0.000436218
-0.000148271
-0.000548333
-0.000171179
-0.000631601
-0.000190882
-0.000685473
-0.000209525
-0.000710382
-0.000229612
-0.000711148
-0.000254414
-0.00069785
-0.000284344
-0.000676446
-0.000312262
-0.000645494
-0.000328162
-0.000594979
-0.00032137
-0.00050322
-0.000279301
-0.000337881
-0.000183337
-0.000129644
-2.22091e-06
0.000103105
0.000226536
0.000388915
0.000458565
0.000731327
0.000688251
0.00117895
0.000909337
0.00164082
0.000874407
0.00175631
0.000502563
0.000926472
0.00161889
0.00500222
0.0102516
0.0139559
0.0130092
0.0015401
0.0123778
0.000355516
0.011615
-0.000129288
0.0105616
-0.000447976
0.00923806
-0.000633755
0.00775881
-0.000714338
0.00622596
-0.000700968
0.00472789
-0.000620404
0.00334436
-0.000504687
0.00212543
-0.000360744
0.00110531
-0.000218854
0.000293679
-9.09601e-05
-0.000297162
6.83472e-06
-0.000670526
4.3815e-05
-0.000886448
4.0232e-05
-0.00102271
1.78466e-05
-0.00113031
-1.63561e-05
-0.00122514
-5.34427e-05
-0.00130873
-8.75873e-05
-0.00138103
-0.000118589
-0.00144358
-0.000146979
-0.00149952
-0.000173669
-0.00155477
-0.000199173
-0.00161771
-0.000221404
-0.00169605
-0.000233926
-0.00179725
-0.000226966
-0.00193049
-0.000188128
-0.00210781
-0.000101988
-0.00233739
4.62419e-05
-0.0026036
0.000263981
-0.00294734
0.000570275
-0.00347284
0.000984063
-0.00427918
0.00149459
-0.00541895
0.00204911
-0.00699792
0.00245337
-0.00885925
0.00236389
-0.0082065
0.000966136
-0.00287481
0.00437846
0.00339529
0.00335818
0.00137585
0.00364237
-0.000413455
0.00357483
-0.000380432
0.00311017
-0.000169098
0.00241436
-1.85299e-05
0.00160247
0.000110905
0.000771783
0.000210277
-9.14426e-08
0.000267176
-0.000640839
0.000279998
-0.00111322
0.000253525
-0.00142733
0.000223143
-0.00160741
0.000186917
-0.00170683
0.000143232
-0.00176877
0.000102162
-0.0018174
6.64725e-05
-0.00186845
3.46999e-05
-0.00192797
6.07416e-06
-0.0019937
-2.18658e-05
-0.00206314
-4.91491e-05
-0.00213788
-7.22446e-05
-0.00222091
-9.06449e-05
-0.00231601
-0.000104075
-0.00242641
-0.000111005
-0.00255261
-0.000107736
-0.00269119
-8.83845e-05
-0.00283335
-4.59757e-05
-0.00296319
2.78546e-05
-0.00307174
0.000154789
-0.00316353
0.000355759
-0.00324955
0.000656294
-0.00334219
0.0010767
-0.00344621
0.00159861
-0.00350049
0.00210339
-0.00340774
0.00236062
-0.00295982
0.00191597
-0.00162715
-0.00036654
-0.00441654
-0.000825626
0.00430454
-0.000378698
0.000928931
-0.00104955
0.000257393
-0.0015642
0.000134202
-0.00191312
0.000179815
-0.00216996
0.000238292
-0.00234916
0.000290098
-0.00247184
0.00033294
-0.00254896
0.000344292
-0.00258658
0.00031761
-0.00259777
0.000264706
-0.00258234
0.000207707
-0.0025494
0.000153971
-0.0025136
0.000107432
-0.00248322
7.17776e-05
-0.00246229
4.55355e-05
-0.00245306
2.54694e-05
-0.00245609
9.10074e-06
-0.00246957
-8.39587e-06
-0.00249359
-2.51321e-05
-0.00252772
-3.81145e-05
-0.00257144
-4.69307e-05
-0.00262401
-5.15139e-05
-0.00268392
-5.10915e-05
-0.00274787
-4.37899e-05
-0.00280983
-2.64347e-05
-0.00286121
5.40303e-06
-0.00288689
5.35279e-05
-0.002862
0.000129897
-0.00275889
0.00025265
-0.00254141
0.000438808
-0.00218096
0.000716246
-0.00168322
0.00110087
-0.00103304
0.00145321
-3.29524e-06
0.00133087
0.00129608
0.00061659
0.00158918
-0.000659638
-0.00273336
-0.00795189
-0.0112163
-0.0068564
-0.00589899
-0.00562197
-0.00547186
-0.00527844
-0.00502813
-0.00472712
-0.00438395
-0.00402977
-0.0037023
-0.00342753
-0.00320945
-0.00304479
-0.00292635
-0.00284328
-0.00278618
-0.00274891
-0.00272784
-0.00272415
-0.00273716
-0.00276317
-0.00279807
-0.00283768
-0.00287703
-0.00290929
-0.00292444
-0.00290805
-0.00284386
-0.00270366
-0.0024411
-0.00199282
-0.00126754
-0.000158122
0.00130292
0.00264132
0.00326542
0.00261361
)
;

boundaryField
{
    floor
    {
        type            calculated;
        value           nonuniform List<scalar> 
29
(
0
0
0
0
0
0
0
0
0
0
0
0
0
0
0
0
0
0
0
0
-5.10858e-06
-1.29439e-05
-1.95137e-05
-2.54943e-05
-2.12852e-06
-3.78865e-06
-1.09271e-05
-1.16639e-05
-1.05167e-05
)
;
    }
    ceiling
    {
        type            calculated;
        value           nonuniform List<scalar> 
43
(
-5.9348e-05
-5.71274e-05
-5.53466e-05
-2.85014e-05
-1.96352e-05
-1.59221e-05
-1.36252e-05
-1.20223e-05
-1.09286e-05
-1.02332e-05
-9.89132e-06
-9.8676e-06
-1.00724e-05
-1.03775e-05
-1.07002e-05
-1.10101e-05
-1.13007e-05
-1.1568e-05
-1.18001e-05
-1.1979e-05
-1.20886e-05
-1.21278e-05
-1.2108e-05
-1.20343e-05
-1.19114e-05
-1.17437e-05
-1.15344e-05
-1.12856e-05
-1.0997e-05
-1.0666e-05
-1.03025e-05
-9.90807e-06
-9.48449e-06
-9.03179e-06
-8.5482e-06
-7.8408e-06
-7.52727e-06
-7.51863e-06
-7.82673e-06
-7.54825e-06
5.91167e-06
3.53105e-06
-8.36148e-05
)
;
    }
    sWall
    {
        type            calculated;
        value           uniform -0.000278801;
    }
    nWall
    {
        type            calculated;
        value           nonuniform List<scalar> 6(-5.46902e-05 -6.51777e-05 -6.92959e-05 -8.54257e-05 -9.40014e-05 -0.000112209);
    }
    sideWalls
    {
        type            empty;
        value           nonuniform 0();
    }
    glass1
    {
        type            calculated;
        value           nonuniform List<scalar> 9(-6.0132e-05 -0.000161499 -0.000246687 -0.000319209 -0.000380827 -0.000432849 -0.000480353 -0.000537944 -0.00060232);
    }
    glass2
    {
        type            calculated;
        value           nonuniform List<scalar> 2(-0.000296495 -0.000329474);
    }
    sun
    {
        type            calculated;
        value           uniform 0;
    }
    heatsource1
    {
        type            calculated;
        value           nonuniform List<scalar> 3(2.05138e-07 2.05024e-07 2.05044e-07);
    }
    heatsource2
    {
        type            calculated;
        value           nonuniform List<scalar> 4(5.14469e-08 5.15533e-08 0 0);
    }
    Table_master
    {
        type            calculated;
        value           nonuniform List<scalar> 9(-1.53848e-07 -1.53944e-07 -1.53978e-07 -1.54001e-07 -1.54017e-07 -1.54029e-07 -1.54034e-07 -1.54028e-07 -1.53995e-07);
    }
    Table_slave
    {
        type            calculated;
        value           nonuniform List<scalar> 9(1.53702e-07 1.53724e-07 1.537e-07 1.53681e-07 1.53674e-07 1.53678e-07 1.53696e-07 1.53746e-07 1.53838e-07);
    }
    inlet
    {
        type            calculated;
        value           uniform -0.00623363;
    }
    outlet
    {
        type            calculated;
        value           nonuniform List<scalar> 2(0.00829003 0.0033215);
    }
}


// ************************************************************************* //
