/*--------------------------------*- C++ -*----------------------------------*=========                 |
  \      /  F ield         | OpenFOAM: The Open Source CFD Toolbox
   \    /   O peration     | Website:  https://openfoam.org
    \  /    A nd           | Version:  6
     \/     M anipulation  |
\*---------------------------------------------------------------------------*/
FoamFile
{
    version     2.0;
    format      ascii;
    class       volScalarField;
    location    "900";
    object      PMV;
}
// * * * * * * * * * * * * * * * * * * * * * * * * * * * * * * * * * * * * * //

dimensions      [0 0 0 0 0 0 0];

internalField   nonuniform List<scalar> 
459
(
1.7477660013543308
1.5397321771067858
1.5154509985581903
1.4928629268799931
1.4767000294075598
1.4664946539001449
1.460521665718257
1.4609244808857593
1.4652001463223507
1.4755729335690968
1.4920610700929702
1.5169869289683302
1.552292480244085
1.5935286281318404
1.611611882511769
1.6802890744421846
1.6664425922570594
1.660712491618315
1.6616675293331524
1.6635775796822794
1.6639622198124937
1.6559985991236252
1.6539460157178663
1.6538676797051175
1.6546793992264286
1.6559325871403452
1.6576092159600482
1.6598155057477728
1.662458728550347
1.667011157181478
1.6761159252840734
1.6855407137376386
1.68792773494206
1.6974752660558419
1.7191122035278474
1.560975128327953
1.5537442230222955
1.5332325785323753
1.520909244433192
1.5127783021500938
1.508262194478433
1.5080421834338436
1.509814899913061
1.5133694662376633
1.520905946753697
1.5344889529355903
1.5559505442509445
1.5828056809457167
1.6074373312500205
1.6139057463171214
1.6167720056742807
1.6386730470453348
1.6568922575409761
1.652116778932245
1.6439727012686347
1.6375107765919827
1.6335549176562403
1.6331989737480153
1.6342250398669624
1.634930728512446
1.6357788534930535
1.6360504571489678
1.6363873721608988
1.6368541524554983
1.6375042888196434
1.6395569117171296
1.6465757644376826
1.6643637097623618
1.671217444246854
1.6620985428373476
1.7667970546090748
1.5642152778300336
1.587636891330861
1.5781504597235299
1.5748924422457882
1.5739086399283864
1.5737054579214735
1.5752762155635989
1.5731993065531893
1.5661818615902754
1.5582142385748883
1.5550401311711457
1.5601487833590428
1.5748805894872748
1.6026060711432937
1.6110394189329555
1.6139057463171214
1.5455437244310388
1.587570233917521
1.602573019764958
1.6112570666833306
1.6186141785669446
1.624201465631696
1.6282097538984133
1.6344856677092046
1.6381146817647683
1.6397126463436882
1.6403692303837716
1.6405751463439044
1.6402089273243168
1.6384963530288892
1.6334276086670927
1.633959266484276
1.6499278195364222
1.6436986911471294
1.60359702436752
1.845533196258188
1.5705219030360626
1.614040030577631
1.6211645437540125
1.6366131322872328
1.6503502680829487
1.6621366199140062
1.6673533954270072
1.6539855369527083
1.6249605832540992
1.5900527270466065
1.5627273999604039
1.5486864293959905
1.5523724946930708
1.5727056550242415
1.602805230002503
1.6039405007064274
1.5688121893838616
1.5544935722606612
1.5798365829916807
1.603925879615752
1.6209989873276849
1.6341133040078777
1.641226069901386
1.6411124185642334
1.637923409903732
1.6360865360085701
1.6348161238244767
1.634576600962176
1.6363038344388114
1.6413385104076366
1.6515085819386945
1.6718874695953478
1.6692419084440973
1.6579811550228238
1.6212161397483165
1.5613443714680528
1.9365826626833822
1.592080190399591
1.6401638970569683
1.6619984995470132
1.7012825738606157
1.745862959139595
1.785268076429749
1.7784403040920216
1.7211782482172875
1.6551484695583556
1.5933089301338832
1.548938753241512
1.52564795135277
1.5233730924635556
1.5393078781872822
1.5636889427277447
1.580458248811851
1.5822528747725633
1.5877272498568349
1.6107808203964096
1.6385208720668518
1.6617816595977526
1.6790969488058294
1.6888825280102147
1.6929337539112221
1.691553095967578
1.6887345506783826
1.6860843950619224
1.682999677353506
1.6805187768801138
1.6795997169142407
1.6808441043058366
1.6835817249481126
1.6738580052254959
1.6525080742173885
1.6008151183806176
1.598154965671381
1.7179993914110399
1.6988232729194594
1.5464203534324907
2.0259415608044873
1.635216145362399
1.6913775676342806
1.710791364445766
1.7626114758489113
1.7971897936307955
1.821028057234575
1.773586236878403
1.7024271614921327
1.629929376269516
1.5653647263063966
1.5185130243702814
1.4954436371055884
1.4963407631716332
1.5176903662588708
1.550735739540417
1.5840023107684686
1.6108059687998075
1.636451895483231
1.667049734540245
1.6831536376979428
1.695088466870483
1.7036806803417135
1.7098857100671718
1.714181272063998
1.7175221346657206
1.7199083949514702
1.720862882625763
1.720862882625763
1.7189538978739132
1.7156130843104869
1.7113175848824316
1.7011064116317145
1.6797960889887515
1.6508742074303502
1.5963434054297219
1.5961418952737867
1.6121589762748003
1.6102984820791943
1.6186482215801352
2.1134858745384273
1.729402649722656
1.8388016782086218
1.8051404050761901
1.797092529324472
1.7939878514790157
1.7626473152474909
1.7088478018144977
1.639014756112625
1.566090780550603
1.5049634674470944
1.4670184602047391
1.4580854431321095
1.4758541126942353
1.5140547640555073
1.5647267474572781
1.6186879168077837
1.654026995063008
1.675514628969995
1.6936563605059864
1.7074992059897436
1.7179993914110399
1.725157960312868
1.7294528455772826
1.7327931778033416
1.734701886062668
1.735656225674842
1.7351790570804313
1.733747536766054
1.7308844309528075
1.7256351793191476
1.7194311475869701
1.7127494389013318
1.701592733340802
1.6661746978556373
1.6143616837714962
1.5966888475757344
1.588318658587741
1.5639836881916254
1.6443892248077285
2.243853054332037
2.0393552159759607
1.995393928893255
1.896364474958443
1.8465811068176707
1.7915126349697492
1.7133489860724387
1.6195553279354553
1.527134782271986
1.4525513858306422
1.408453906353076
1.3993543897860738
1.4245458509368603
1.4759185550321956
1.544573993518664
1.6215489522998026
1.6545045439609756
1.6826762159331974
1.7060672760091289
1.7213401229310599
1.731838809192822
1.7389963377872386
1.7432905917239585
1.7461533169665813
1.7475846461849127
1.748538853249565
1.748538853249565
1.747107538926
1.7451990851006611
1.7418591958254572
1.7370877168946115
1.7299300431014977
1.7237262890494232
1.7165676141584056
1.708453814515279
1.6995394419279946
1.6772090343617239
1.6658502897368372
1.609535054158576
1.537013650384864
2.4361893066796734
2.3013619350827974
2.1312551068889234
1.9611988449241429
1.8043261345794614
1.645153676551991
1.4815210773189385
1.3510910700087877
1.2724517826782777
1.2511073749823542
1.2797035860406378
1.3464886509960985
1.4402275402333973
1.5485379624802194
1.611994868927298
1.6588023911904144
1.6946111003157875
1.7184766458145242
1.7342247126237522
1.7447219654586301
1.7514014146489605
1.7501423909455371
1.7478309719753644
1.7449788222528466
1.7420083753925804
1.738013557272611
1.7331706545150443
1.7272944113905195
1.7205914710394261
1.7120526438534118
1.702737957894853
1.6926727649756048
1.6831218245621653
1.6705931892003296
1.656841947750854
1.6450244870616226
1.636700884358695
1.6317992007655036
1.6207451357544371
1.590661612564919
-2.98668786120208
-1.5706051732348547
-0.9187971465181459
-0.326353108465577
0.147357275051245
0.5392132226901424
0.8628189186245714
1.1290295709296527
1.3413567676767566
1.4662118975206029
1.5675587339672625
1.6349233748560559
1.6802890744421846
1.703500252483723
1.7132592810587592
1.7201075208393977
1.7232660123474255
1.7239653466606786
1.72308995159035
1.7211214635734289
1.7187128482242855
1.715165917616761
1.7113057540289598
1.7070728767282004
1.7025179285298664
1.6973028304466542
1.6926506632997087
1.68838988928994
1.6854155753826106
1.6841301542939278
1.683359712788008
1.6833845945318722
1.6842668373682432
1.6870084566923476
1.6978543136752888
1.7313868490621132
1.7947690971341135
1.645878734897946
-2.4105962122697693
-0.9082332319549685
0.08779747388339659
0.5642415831393025
0.8750081270241787
1.1082297845801146
1.2681089207892045
1.385017537122997
1.474722255957075
1.544029800435264
1.597476101852253
1.634933377351949
1.660715573856291
1.6785607596409684
1.6901950671795287
1.6978211063878514
1.7021512541637245
1.7047742199194718
1.7066491950798872
1.7069500358422809
1.706673633702797
1.705919149796342
1.7042961575708095
1.7028986273614177
1.7008964781253877
1.6989902869274531
1.6979545834401724
1.6972567073659033
1.6984704255047733
1.702387162624239
1.7102821536749049
1.7222443066895472
1.7353686888046673
1.7468868161168303
1.7587834281392283
1.795373526522693
1.7300764391538583
1.6828154100437773
-0.8753007786520035
-1.0194867876852167
-0.8981006581071715
0.34347547434520825
0.8584576933462197
1.0846262042267574
1.2275833033350319
1.3372122452118451
1.4247178099207378
1.494279484570353
1.550036537652107
1.594125079005955
1.6282821813467185
1.651602436506229
1.6671291610648158
1.6759502827736155
1.6806315879309213
1.6826190591107961
1.6842567952557759
1.6849505462161576
1.6862676687462637
1.6876389285033122
1.6884939206490621
1.6898186507008315
1.6906257941561562
1.6914872591450596
1.6925579371953525
1.6941110049360018
1.6965547573294015
1.7004571098490808
1.7070780542504054
1.7180831847358027
1.7379255291456368
1.7733761925476321
1.8062491569640027
1.8124470905466206
1.7803155330903586
1.7415390828201824
1.6988183312271743
1.6994626687681216
)
;

boundaryField
{
    ".*"
    {
        type            zeroGradient;
    }
}


// ************************************************************************* //
