/*--------------------------------*- C++ -*----------------------------------*\
  =========                 |
  \\      /  F ield         | OpenFOAM: The Open Source CFD Toolbox
   \\    /   O peration     | Website:  https://openfoam.org
    \\  /    A nd           | Version:  6
     \\/     M anipulation  |
\*---------------------------------------------------------------------------*/
FoamFile
{
    version     2.0;
    format      ascii;
    class       volScalarField;
    location    "1700";
    object      nut;
}
// * * * * * * * * * * * * * * * * * * * * * * * * * * * * * * * * * * * * * //

dimensions      [0 2 -1 0 0 0 0];

internalField   nonuniform List<scalar> 
459
(
0.00113478
0.00124234
0.00126592
0.00132828
0.00138671
0.00144201
0.00149703
0.00154798
0.00158244
0.00159464
0.00157948
0.00153388
0.00145705
0.00135393
0.00123849
0.000509208
0.00061486
0.000690156
0.000686809
0.000662865
0.00063135
0.000591684
0.000552432
0.000516869
0.00048534
0.00045746
0.000432727
0.000410765
0.000391078
0.00037298
0.0003556
0.000337769
0.000327605
0.000301265
0.00154591
0.00386313
0.00373057
0.0043542
0.00496876
0.00557561
0.00609395
0.00649979
0.00685927
0.00714412
0.00731701
0.00733897
0.0071499
0.00659525
0.00506212
0.00127208
0.000720912
0.000543171
0.00113327
0.00157467
0.00189609
0.00206594
0.0020547
0.0016406
0.00141088
0.00124726
0.00112196
0.00102245
0.000941463
0.000871744
0.000807113
0.000744694
0.00068923
0.000639782
0.000769913
0.000402561
0.00188558
0.0052835
0.00465472
0.00583139
0.00643032
0.00687881
0.00722844
0.00752242
0.00783276
0.00814599
0.00842213
0.00861479
0.00866939
0.00849498
0.00784015
0.00594048
0.00129479
0.0010556
0.00153474
0.00197675
0.00237848
0.00265048
0.00257268
0.000842305
0.000742437
0.000662352
0.00059787
0.000545446
0.000502359
0.000466659
0.000437096
0.000413152
0.000444848
0.000512428
0.000876476
0.000472359
0.00220928
0.00672726
0.00470607
0.00617919
0.00670212
0.00690172
0.00704931
0.00723051
0.00749771
0.0078349
0.00818967
0.00850642
0.00872372
0.00876627
0.00856958
0.0078355
0.00540382
0.00152764
0.00190431
0.00246863
0.00301786
0.00344972
0.00370283
0.0034487
0.000947966
0.000860912
0.00079859
0.000750893
0.000710143
0.00067307
0.00063746
0.000600227
0.00055729
0.000523239
0.000540448
0.00103971
0.000523313
0.00253766
0.00855967
0.00521447
0.00600057
0.00665663
0.00673074
0.00671727
0.00685203
0.00709527
0.00745237
0.00785461
0.00822824
0.00848404
0.00856436
0.00845907
0.00813029
0.00738261
0.00610384
0.00565745
0.00550626
0.00544328
0.00538747
0.00529361
0.00504604
0.00421618
0.00381602
0.00358084
0.00339878
0.00321003
0.00294173
0.00259096
0.00217545
0.0017231
0.00127733
0.000947063
0.00100523
0.000688819
0.000642855
0.000766781
0.000858796
0.0028842
0.0105449
0.00714757
0.00611969
0.00659006
0.00673103
0.00667945
0.00676886
0.00695911
0.00728445
0.00771049
0.0081275
0.00840765
0.00846813
0.00831293
0.00802127
0.00768423
0.00735243
0.00715064
0.00697084
0.00675371
0.00650762
0.00624224
0.0059361
0.00552775
0.00517675
0.00487543
0.00459461
0.00431525
0.00401462
0.00364117
0.00318214
0.00264184
0.00205553
0.00154745
0.0011479
0.000921364
0.000818922
0.0011825
0.000901025
0.00319211
0.0118953
0.0098523
0.00788739
0.00754705
0.00730109
0.00701998
0.0069015
0.00701514
0.00735752
0.00784035
0.00830654
0.00859231
0.00860205
0.00835974
0.00801584
0.00777397
0.00770773
0.0076743
0.00751053
0.00720563
0.0068212
0.00640077
0.00596395
0.00552778
0.00514062
0.00479865
0.00448876
0.0042082
0.00396146
0.0037472
0.00344424
0.00302364
0.00251538
0.00204604
0.00161587
0.00134556
0.00127975
0.00130713
0.00102938
0.00324524
0.0103916
0.00937937
0.00869051
0.00802059
0.0073424
0.00691326
0.00684591
0.00713169
0.00767335
0.0083006
0.00880667
0.009022
0.00888698
0.00849011
0.00807012
0.00787632
0.00787451
0.00773689
0.007368
0.00685084
0.0062688
0.00568529
0.00515191
0.00470141
0.0043367
0.00403838
0.00379474
0.00360555
0.00347566
0.00340876
0.00337327
0.00317825
0.00285577
0.00259173
0.0024905
0.0026442
0.00309631
0.00396989
0.00155399
0.0031534
0.00371838
0.00409854
0.00418896
0.00439632
0.00485999
0.00559795
0.00656105
0.00762435
0.0086143
0.00934646
0.00966559
0.00952042
0.00901639
0.00841285
0.00802913
0.00776816
0.00747355
0.00700869
0.00637844
0.0056759
0.00499548
0.00440825
0.00394357
0.0035905
0.00331911
0.00310266
0.00292533
0.00277747
0.00265138
0.00254062
0.00244418
0.00237275
0.00232889
0.00232822
0.00235937
0.00235808
0.0022677
0.00210669
0.0014426
0.00145327
0.0036719
0.00664493
0.00860221
0.00990942
0.0107237
0.011082
0.0110516
0.0107106
0.0101419
0.00932168
0.00845445
0.00776738
0.00727462
0.00677787
0.00617406
0.00548885
0.0048001
0.0041717
0.0036489
0.00325488
0.00296956
0.00276144
0.00260534
0.002486
0.00239562
0.00233094
0.0022919
0.00228124
0.00229821
0.00233283
0.0023833
0.00244447
0.00249777
0.00251913
0.00251155
0.00222566
0.00119375
0.00218899
0.00672641
0.00933333
0.0100334
0.01027
0.0101532
0.00970778
0.00905261
0.00830171
0.00755819
0.00685201
0.0062446
0.00573251
0.0052233
0.00467742
0.00413768
0.00364962
0.00323848
0.00290899
0.00265232
0.00245812
0.00231682
0.00221717
0.00215229
0.00211829
0.00211165
0.00212734
0.00216084
0.00221948
0.00229858
0.00239456
0.00250129
0.00260601
0.00269505
0.00276847
0.00277528
0.00191732
0.00123279
0.00196078
0.00207974
0.00216547
0.00233594
0.00224699
0.00216269
0.00209449
0.00199498
0.00185967
0.00169661
0.00151422
0.00132787
0.00115927
0.00102283
0.000919779
0.000843842
0.00078778
0.000746245
0.000716124
0.0006958
0.000684218
0.000680594
0.000683259
0.000691047
0.000703574
0.000720696
0.000742478
0.000769222
0.000801616
0.000840568
0.000885515
0.000936952
0.000995187
0.00106055
0.00113273
0.00121583
0.00123789
0.00112829
0.00105065
0.00118989
)
;

boundaryField
{
    floor
    {
        type            nutkWallFunction;
        Cmu             0.09;
        kappa           0.41;
        E               9.8;
        value           nonuniform List<scalar> 
29
(
0.00014842
6.08933e-05
7.42045e-05
8.35192e-05
8.31078e-05
8.01579e-05
7.62556e-05
7.13103e-05
6.63766e-05
6.18692e-05
5.78411e-05
5.42519e-05
5.10448e-05
4.81776e-05
4.55909e-05
4.31981e-05
4.08862e-05
3.8499e-05
3.7131e-05
3.35591e-05
3.3559e-05
4.71009e-05
5.61726e-05
6.26879e-05
0.00014842
6.08932e-05
6.5206e-05
0.000127237
0.000181221
)
;
    }
    ceiling
    {
        type            nutkWallFunction;
        Cmu             0.09;
        kappa           0.41;
        E               9.8;
        value           nonuniform List<scalar> 
43
(
0.00022893
0.000241855
0.000251123
0.000269579
0.000260086
0.000251021
0.000243654
0.000232848
0.000218055
0.000200067
0.00017972
0.000158647
0.000139296
0.000123402
0.000111236
0.000102171
9.54179e-05
9.0378e-05
8.67023e-05
8.42119e-05
8.27887e-05
8.23428e-05
8.26707e-05
8.36281e-05
8.51654e-05
8.72615e-05
8.99192e-05
9.317e-05
9.70898e-05
0.000101778
0.000107158
0.000113274
0.000120153
0.00012782
0.000136223
0.000145822
0.000148359
0.000135707
0.000126663
0.000142838
0.000356053
0.000414252
0.000253454
)
;
    }
    sWall
    {
        type            nutkWallFunction;
        Cmu             0.09;
        kappa           0.41;
        E               9.8;
        value           uniform 0.000228995;
    }
    nWall
    {
        type            nutkWallFunction;
        Cmu             0.09;
        kappa           0.41;
        E               9.8;
        value           nonuniform List<scalar> 6(0.000103966 0.000109009 0.000124175 0.000143292 0.000147785 0.000142848);
    }
    sideWalls
    {
        type            empty;
    }
    glass1
    {
        type            nutkWallFunction;
        Cmu             0.09;
        kappa           0.41;
        E               9.8;
        value           nonuniform List<scalar> 9(0.000136586 0.000183525 0.000221241 0.000256499 0.000291706 0.000328342 0.000360513 0.000366042 0.000356517);
    }
    glass2
    {
        type            nutkWallFunction;
        Cmu             0.09;
        kappa           0.41;
        E               9.8;
        value           nonuniform List<scalar> 2(0.000184272 0.00017174);
    }
    sun
    {
        type            nutkWallFunction;
        Cmu             0.09;
        kappa           0.41;
        E               9.8;
        value           nonuniform List<scalar> 
14
(
0.00013646
0.000148864
0.000151567
0.00015869
0.00016533
0.000171587
0.000177784
0.000183501
0.000187356
0.000188718
0.000187025
0.00018192
0.000173282
0.000161607
)
;
    }
    heatsource1
    {
        type            nutkWallFunction;
        Cmu             0.09;
        kappa           0.41;
        E               9.8;
        value           nonuniform List<scalar> 3(7.76845e-05 9.28741e-05 0.000103963);
    }
    heatsource2
    {
        type            nutkWallFunction;
        Cmu             0.09;
        kappa           0.41;
        E               9.8;
        value           nonuniform List<scalar> 4(0.000152265 8.72896e-05 8.72896e-05 0.000154862);
    }
    Table_master
    {
        type            nutkWallFunction;
        Cmu             0.09;
        kappa           0.41;
        E               9.8;
        value           nonuniform List<scalar> 9(0.000101986 8.99151e-05 8.00967e-05 7.20879e-05 6.54994e-05 6.00262e-05 5.54473e-05 5.16225e-05 4.85008e-05);
    }
    Table_slave
    {
        type            nutkWallFunction;
        Cmu             0.09;
        kappa           0.41;
        E               9.8;
        value           nonuniform List<scalar> 9(0.000114576 0.000104216 9.6724e-05 9.09441e-05 8.59716e-05 8.14182e-05 7.70161e-05 7.23815e-05 6.69934e-05);
    }
    inlet
    {
        type            calculated;
        value           uniform 0.000100623;
    }
    outlet
    {
        type            calculated;
        value           nonuniform List<scalar> 2(0.00196078 0.00207974);
    }
}


// ************************************************************************* //
