/*--------------------------------*- C++ -*----------------------------------*\
  =========                 |
  \\      /  F ield         | OpenFOAM: The Open Source CFD Toolbox
   \\    /   O peration     | Website:  https://openfoam.org
    \\  /    A nd           | Version:  6
     \\/     M anipulation  |
\*---------------------------------------------------------------------------*/
FoamFile
{
    version     2.0;
    format      ascii;
    class       volScalarField;
    location    "200";
    object      alphat;
}
// * * * * * * * * * * * * * * * * * * * * * * * * * * * * * * * * * * * * * //

dimensions      [1 -1 -1 0 0 0 0];

internalField   nonuniform List<scalar> 
459
(
0.00159543
0.00179065
0.00193695
0.00178842
0.00150999
0.0012925
0.00107392
0.000950498
0.000862116
0.000794327
0.000750075
0.000721065
0.000700565
0.000685644
0.000671833
0.000368425
0.000392777
0.000379996
0.00032703
0.000284645
0.000264684
0.000262983
0.00026679
0.000253387
0.000234372
0.000220464
0.000225391
0.000267004
0.000293577
0.000359414
0.000449757
0.000499465
0.000487055
0.000433008
0.00160682
0.00305053
0.00433111
0.00585894
0.0061844
0.00579897
0.00485336
0.00355468
0.0030332
0.00318994
0.0032691
0.00306018
0.00273461
0.00228445
0.00161776
0.000730983
0.000533196
0.000447939
0.00126578
0.0013226
0.00136725
0.00124739
0.00097356
0.000786176
0.000697922
0.000565835
0.000411822
0.000302206
0.000289421
0.00038999
0.000605123
0.000990419
0.00156681
0.00162084
0.0016306
0.000565499
0.00256243
0.00320595
0.00351652
0.00394038
0.00470663
0.00536661
0.00566461
0.00544766
0.00425752
0.00385428
0.00421689
0.00406411
0.00358861
0.00297731
0.00223619
0.00148014
0.000822757
0.000800655
0.00263113
0.00236015
0.00218836
0.00180425
0.00130052
0.000513105
0.000416247
0.000354086
0.000303476
0.000261354
0.000343813
0.0004694
0.000575178
0.000703655
0.00172938
0.00166343
0.00131821
0.000681145
0.00382768
0.00437564
0.0042754
0.00413623
0.00430545
0.00482717
0.00544383
0.00584451
0.00535458
0.00461308
0.00501089
0.00512919
0.00466914
0.00398179
0.00311107
0.0021819
0.00146101
0.00114717
0.00275152
0.00284735
0.00284598
0.00243459
0.00190332
0.00129777
0.00080968
0.000814038
0.000821946
0.000830189
0.000838898
0.000849766
0.000867103
0.000893876
0.000941486
0.00228933
0.0031008
0.00325309
0.00113382
0.00414515
0.00524187
0.00491369
0.00447075
0.00435825
0.0047013
0.00535607
0.00600365
0.00593175
0.00546777
0.00585575
0.0063615
0.0062929
0.00605348
0.00573749
0.005335
0.00490054
0.00455884
0.00449409
0.00454719
0.00455969
0.00444766
0.00428416
0.00412739
0.00400562
0.00397553
0.00393641
0.00388555
0.00383578
0.00380927
0.00382888
0.00390225
0.00402899
0.00421412
0.00432052
0.00421689
0.00353172
0.00157024
0.0014119
0.00124066
0.00439275
0.00574669
0.00520511
0.00449966
0.00431608
0.00463385
0.00534542
0.00613235
0.00624147
0.00590542
0.0063898
0.00709459
0.00725648
0.00726269
0.00724206
0.00717029
0.00702383
0.00681275
0.0065698
0.00630799
0.00605895
0.0058622
0.00571324
0.0055878
0.00545892
0.00531205
0.00513692
0.00494174
0.00475198
0.00460525
0.00453182
0.00453518
0.0045888
0.00464615
0.00468597
0.00464435
0.00428847
0.00357413
0.00271208
0.00132296
0.00465677
0.00561534
0.0044173
0.0043091
0.00428405
0.00466429
0.00541116
0.00620458
0.00635657
0.00609337
0.00655752
0.0073284
0.00759763
0.00770731
0.00779429
0.00783334
0.00778806
0.00764359
0.00741331
0.00713991
0.00688225
0.00668197
0.00653709
0.00641873
0.00628914
0.00612165
0.00590353
0.0056363
0.00534189
0.00506095
0.00482912
0.00465877
0.00453699
0.00442126
0.0042533
0.0039625
0.00348636
0.00288191
0.00226078
0.00128844
0.00500462
0.00548712
0.00442425
0.00401939
0.00448233
0.00491474
0.00556991
0.00624794
0.00639592
0.00617341
0.00651119
0.00717234
0.00749167
0.00764211
0.00776037
0.00783464
0.00783579
0.00774461
0.00756714
0.00734071
0.00712152
0.00695514
0.00685563
0.00680948
0.00678508
0.00674439
0.00665174
0.00648336
0.00624076
0.00595902
0.00565623
0.00529912
0.00488258
0.00442916
0.00397045
0.00354235
0.0031694
0.0028056
0.00244665
0.00154885
0.00557612
0.00652516
0.0084143
0.0041111
0.00475293
0.00554445
0.00594215
0.00641223
0.00652269
0.00625077
0.00627045
0.00665162
0.00697344
0.00713236
0.00722776
0.00728312
0.00729072
0.00723478
0.00711096
0.00693919
0.00676037
0.00661831
0.00654434
0.00655515
0.00665388
0.00681919
0.00700796
0.00716424
0.0072381
0.00718395
0.00701652
0.00681344
0.00663718
0.00653999
0.00648672
0.00619218
0.00533611
0.00459164
0.00446959
0.00176853
0.0138231
0.00708932
0.00431723
0.00635171
0.00658885
0.00681423
0.00675075
0.00631628
0.00608146
0.00609429
0.00616769
0.00618969
0.00618462
0.00616869
0.00614238
0.00609497
0.00601563
0.00590482
0.00577836
0.00566221
0.00558545
0.00557773
0.00566916
0.00588438
0.00622584
0.00665214
0.00706713
0.00730555
0.00736084
0.00729461
0.00717658
0.00706611
0.00697976
0.0068646
0.00653192
0.00568131
0.00530982
0.00174109
0.00574049
0.00377274
0.0059211
0.00652217
0.00662495
0.00661534
0.00618141
0.00563834
0.00524631
0.0050127
0.00484799
0.00469631
0.00457265
0.00447864
0.00440762
0.0043489
0.00429138
0.00422755
0.0041566
0.00408491
0.00402473
0.00399342
0.0040141
0.0041166
0.00433384
0.00468799
0.00516094
0.00563747
0.00598967
0.0061865
0.0062493
0.00621195
0.00609463
0.00587812
0.00534092
0.00452684
0.00428405
0.00152775
0.00270541
0.00330804
0.00406511
0.00193379
0.00187627
0.00205368
0.00207298
0.00199332
0.00186417
0.00174166
0.00163657
0.00154617
0.00146797
0.00140122
0.00134277
0.00129067
0.00124358
0.0012005
0.00116059
0.00112311
0.00108753
0.00105361
0.00102141
0.000991361
0.00096436
0.000941916
0.000926341
0.000920794
0.000929032
0.000963387
0.001026
0.0011055
0.00118305
0.00124112
0.00126855
0.0012591
0.00123267
0.00119639
0.00120423
0.00114884
)
;

boundaryField
{
    floor
    {
        type            compressible::alphatWallFunction;
        Prt             0.85;
        value           nonuniform List<scalar> 
29
(
9.50252e-05
4.86917e-05
5.2538e-05
5.05041e-05
4.20156e-05
3.5101e-05
3.18e-05
3.15203e-05
3.21565e-05
2.99279e-05
2.67316e-05
2.43681e-05
2.51968e-05
3.21937e-05
3.65801e-05
4.72317e-05
6.14501e-05
6.91109e-05
6.7204e-05
5.88396e-05
5.88388e-05
7.91377e-05
9.63877e-05
0.000160985
9.50241e-05
4.86911e-05
6.11889e-05
0.000113854
0.000162799
)
;
    }
    ceiling
    {
        type            compressible::alphatWallFunction;
        Prt             0.85;
        value           nonuniform List<scalar> 
43
(
0.000367644
0.000442836
0.000535336
0.00026865
0.000261128
0.000284289
0.000286794
0.00027643
0.000259531
0.000243383
0.000229431
0.000217352
0.000206838
0.000197814
0.000189873
0.00018276
0.000176304
0.000170373
0.000164855
0.000159654
0.000154699
0.000149957
0.000145439
0.000141209
0.000137395
0.000134216
0.000132005
0.000131216
0.000132388
0.000137259
0.000146084
0.000157198
0.00016795
0.000175949
0.000179712
0.000178414
0.000174785
0.000169788
0.000170868
0.000163212
0.000715167
0.000825522
0.000734355
)
;
    }
    sWall
    {
        type            compressible::alphatWallFunction;
        Prt             0.85;
        value           uniform 0.000366543;
    }
    nWall
    {
        type            compressible::alphatWallFunction;
        Prt             0.85;
        value           nonuniform List<scalar> 6(0.000175523 0.000186786 0.000182076 0.000242906 0.000214493 0.000162875);
    }
    sideWalls
    {
        type            empty;
    }
    glass1
    {
        type            compressible::alphatWallFunction;
        Prt             0.85;
        value           nonuniform List<scalar> 9(0.000219042 0.000220704 0.000343685 0.000499642 0.000537795 0.00056734 0.000598669 0.000639707 0.000706614);
    }
    glass2
    {
        type            compressible::alphatWallFunction;
        Prt             0.85;
        value           nonuniform List<scalar> 2(0.00021596 0.000245046);
    }
    sun
    {
        type            compressible::alphatWallFunction;
        Prt             0.85;
        value           nonuniform List<scalar> 
14
(
0.000223845
0.000249739
0.000268942
0.000249422
0.000212346
0.000182857
0.000152652
0.000135291
0.000122697
0.000112933
0.000106505
0.000102267
9.92591e-05
9.70627e-05
)
;
    }
    heatsource1
    {
        type            compressible::alphatWallFunction;
        Prt             0.85;
        value           nonuniform List<scalar> 3(0.000220558 0.000199246 0.000175891);
    }
    heatsource2
    {
        type            compressible::alphatWallFunction;
        Prt             0.85;
        value           nonuniform List<scalar> 4(0.000103853 7.44102e-05 7.44093e-05 0.000117165);
    }
    Table_master
    {
        type            compressible::alphatWallFunction;
        Prt             0.85;
        value           nonuniform List<scalar> 9(7.13432e-05 5.63652e-05 4.65215e-05 3.83404e-05 3.13882e-05 4.48434e-05 6.46297e-05 8.07567e-05 9.98544e-05);
    }
    Table_slave
    {
        type            compressible::alphatWallFunction;
        Prt             0.85;
        value           nonuniform List<scalar> 9(0.0001153 0.00011593 0.000117072 0.00011826 0.000119514 0.000121077 0.000123563 0.000127391 0.000134165);
    }
    inlet
    {
        type            fixedValue;
        value           uniform 1.94e-05;
    }
    outlet
    {
        type            zeroGradient;
    }
}


// ************************************************************************* //
