/*--------------------------------*- C++ -*----------------------------------*\
  =========                 |
  \\      /  F ield         | OpenFOAM: The Open Source CFD Toolbox
   \\    /   O peration     | Website:  https://openfoam.org
    \\  /    A nd           | Version:  6
     \\/     M anipulation  |
\*---------------------------------------------------------------------------*/
FoamFile
{
    version     2.0;
    format      ascii;
    class       volScalarField;
    location    "200";
    object      epsilon;
}
// * * * * * * * * * * * * * * * * * * * * * * * * * * * * * * * * * * * * * //

dimensions      [0 2 -3 0 0 0 0];

internalField   nonuniform List<scalar> 
459
(
0.000924834
0.0013052
0.00165028
0.00129394
0.000776214
0.000485943
0.000278467
0.000192996
0.00014397
0.000112582
9.47772e-05
8.4189e-05
7.72023e-05
7.23673e-05
6.80801e-05
1.12023e-05
1.35549e-05
1.22607e-05
7.80542e-06
5.14432e-06
4.13585e-06
4.05751e-06
4.23749e-06
3.63226e-06
2.87477e-06
2.39226e-06
2.55373e-06
4.24936e-06
5.64943e-06
1.03693e-05
2.03296e-05
2.78437e-05
2.58125e-05
1.81364e-05
0.000948236
0.00262139
0.00392323
0.00513287
0.00468052
0.00333733
0.00143903
0.000501932
0.000199833
9.69721e-05
6.8277e-05
6.35352e-05
6.588e-05
6.8696e-05
7.00892e-05
8.76758e-05
3.40072e-05
2.0142e-05
6.0392e-05
3.5898e-05
2.30404e-05
2.00897e-05
1.43347e-05
1.13027e-05
7.87882e-06
6.12372e-06
4.04906e-06
2.8623e-06
4.34503e-06
9.24789e-06
1.55761e-05
3.20995e-05
4.64642e-05
5.62925e-05
6.98177e-05
4.04044e-05
0.00386249
0.00494565
0.00447668
0.00405073
0.00387745
0.00352668
0.00290538
0.00207975
0.000603864
0.000171554
8.5169e-05
7.15164e-05
7.5532e-05
8.39979e-05
9.31066e-05
0.000104895
0.000125001
0.000115143
0.000195301
7.04922e-05
5.66036e-05
5.50159e-05
5.48205e-05
3.02364e-05
1.61288e-05
9.92479e-06
6.2473e-06
3.98841e-06
9.05929e-06
2.31151e-05
4.25755e-05
7.80143e-05
7.23028e-05
8.23964e-05
9.26766e-05
7.0705e-05
0.0128994
0.0103508
0.00745294
0.00538458
0.00412529
0.00343746
0.0029372
0.0023859
0.00134735
0.00034699
0.0001227
8.62253e-05
8.59131e-05
9.51345e-05
0.00011091
0.000140894
0.000205797
0.000338752
0.000228999
9.72463e-05
6.93724e-05
6.57911e-05
7.0278e-05
8.43853e-05
0.000119389
0.000121336
0.000124916
0.000128721
0.000132824
0.000138062
0.00014669
0.000160704
0.000187759
0.000144642
0.000168865
0.000257445
0.000327364
0.0163616
0.013563
0.00819175
0.00518183
0.0037367
0.00305747
0.00267181
0.00229773
0.00147249
0.000476811
0.000165689
0.000103318
9.59217e-05
9.91695e-05
0.000102743
0.000104612
0.000105697
0.00010407
8.49099e-05
6.79927e-05
6.16423e-05
6.17411e-05
6.53265e-05
7.12492e-05
7.89402e-05
8.63414e-05
9.53284e-05
0.000106528
0.000120795
0.000139673
0.000165752
0.000201778
0.000250876
0.000304891
0.000395588
0.000478128
0.000550219
0.000872259
0.00063403
0.000430186
0.01945
0.0171513
0.00811639
0.00421004
0.0029353
0.00248499
0.00227468
0.0020582
0.00136144
0.000495605
0.000186337
0.00011817
0.000112228
0.000118976
0.000124885
0.000125646
0.000119871
0.000108615
9.45163e-05
8.27653e-05
7.60786e-05
7.48186e-05
7.73766e-05
8.26278e-05
9.0084e-05
0.000100078
0.000113772
0.000132277
0.000157238
0.000191593
0.000240115
0.000309124
0.000405086
0.000532273
0.000697722
0.000890591
0.00100297
0.000917306
0.000575254
0.000521823
0.0231445
0.0218439
0.0077102
0.00277914
0.00216795
0.00198805
0.00190336
0.00176307
0.00118536
0.000470079
0.000190178
0.000130217
0.00013141
0.000145754
0.000158214
0.000163704
0.000160205
0.000148496
0.000132048
0.000115932
0.000104251
9.84079e-05
9.76758e-05
0.000101161
0.000108688
0.000121302
0.000140718
0.00016869
0.000207058
0.000258428
0.000327071
0.000418903
0.000538957
0.000685902
0.000845265
0.00097728
0.00101134
0.000917855
0.000706788
0.000482153
0.0286906
0.0310126
0.0177905
0.0026157
0.00173796
0.00167671
0.0016202
0.00149147
0.00101517
0.000438157
0.000200446
0.000150947
0.000159371
0.000180809
0.000199201
0.000209329
0.000208988
0.000198315
0.000180355
0.000160257
0.000142942
0.000131027
0.000124955
0.000124514
0.000130141
0.000143748
0.00016842
0.000207908
0.000265514
0.000342473
0.000435876
0.000537494
0.00063714
0.000730157
0.000818935
0.000913722
0.00102954
0.00115626
0.00125324
0.000839778
0.0396312
0.0633415
0.0771028
0.0110692
0.00192478
0.0016212
0.00146571
0.00130506
0.00089938
0.000443158
0.000258415
0.000210382
0.00021409
0.00023281
0.00024994
0.000259731
0.00025993
0.000250072
0.000232046
0.000209971
0.000188445
0.000170618
0.000157892
0.00015082
0.000150332
0.000158615
0.000178856
0.000215712
0.00027438
0.000356896
0.000464529
0.000597555
0.000756692
0.000949432
0.00118037
0.00140513
0.00154826
0.00185536
0.00274709
0.0012504
0.186527
0.0551548
0.00426164
0.00189703
0.00148331
0.00126405
0.000872795
0.000546383
0.00039376
0.000335098
0.000318159
0.000316976
0.000319114
0.000318444
0.000312262
0.000299705
0.000281382
0.000259282
0.000236152
0.000214509
0.000196125
0.000182145
0.000173617
0.000172057
0.000179783
0.000200205
0.00023779
0.000296351
0.000377373
0.000475134
0.000580098
0.000682881
0.000771454
0.000826996
0.000817975
0.000759946
0.00133126
0.00119145
0.0430344
0.00607037
0.00264359
0.00180915
0.00151526
0.00126123
0.000922175
0.000688988
0.000561546
0.000495954
0.000462143
0.000441622
0.000424861
0.000407655
0.00038832
0.000366432
0.000342305
0.000316825
0.000291234
0.000266804
0.000244595
0.000225425
0.000210015
0.000199227
0.000194301
0.00019717
0.000211101
0.000240638
0.000288512
0.00035066
0.000415232
0.000467507
0.000494119
0.000484808
0.000447171
0.000432318
0.0010076
0.000805045
0.00450971
0.00823851
0.0152871
0.001648
0.00150584
0.00197474
0.00202976
0.00180223
0.00147285
0.00120047
0.000995639
0.000839378
0.000718189
0.00062447
0.000549422
0.000487807
0.000436246
0.000392376
0.000354441
0.000321122
0.000291496
0.000264998
0.000241378
0.000220645
0.000203058
0.000189167
0.0001799
0.000176651
0.000181395
0.000202224
0.0002442
0.000305373
0.00037414
0.000431876
0.000461069
0.000450772
0.000422937
0.00038665
0.000394265
0.000342426
)
;

boundaryField
{
    floor
    {
        Cmu             0.09;
        kappa           0.41;
        E               9.8;
        type            epsilonWallFunction;
        value           nonuniform List<scalar> 
29
(
6.80801e-05
1.12023e-05
1.35549e-05
1.22607e-05
7.80542e-06
5.14432e-06
4.13585e-06
4.05751e-06
4.23749e-06
3.63226e-06
2.87477e-06
2.39226e-06
2.55373e-06
4.24936e-06
5.64943e-06
1.03693e-05
2.03296e-05
2.78437e-05
2.58125e-05
1.81364e-05
1.81364e-05
4.04044e-05
7.0705e-05
0.000327364
6.80801e-05
1.12023e-05
2.0142e-05
0.000115143
0.000338752
)
;
    }
    ceiling
    {
        Cmu             0.09;
        kappa           0.41;
        E               9.8;
        type            epsilonWallFunction;
        value           nonuniform List<scalar> 
43
(
0.00450971
0.00823851
0.0152871
0.001648
0.00150584
0.00197474
0.00202976
0.00180223
0.00147285
0.00120047
0.000995639
0.000839378
0.000718189
0.00062447
0.000549422
0.000487807
0.000436246
0.000392376
0.000354441
0.000321122
0.000291496
0.000264998
0.000241378
0.000220645
0.000203058
0.000189167
0.0001799
0.000176651
0.000181395
0.000202224
0.0002442
0.000305373
0.00037414
0.000431876
0.000461069
0.000450772
0.000422937
0.00038665
0.000394265
0.000342426
0.0396312
0.0633415
0.0430344
)
;
    }
    sWall
    {
        Cmu             0.09;
        kappa           0.41;
        E               9.8;
        type            epsilonWallFunction;
        value           uniform 0.00450971;
    }
    nWall
    {
        Cmu             0.09;
        kappa           0.41;
        E               9.8;
        type            epsilonWallFunction;
        value           nonuniform List<scalar> 6(0.000430186 0.000521823 0.000482153 0.00119145 0.000805045 0.000342426);
    }
    sideWalls
    {
        type            empty;
    }
    glass1
    {
        Cmu             0.09;
        kappa           0.41;
        E               9.8;
        type            epsilonWallFunction;
        value           nonuniform List<scalar> 9(0.000924834 0.000948236 0.00386249 0.0128994 0.0163616 0.01945 0.0231445 0.0286906 0.0396312);
    }
    glass2
    {
        Cmu             0.09;
        kappa           0.41;
        E               9.8;
        type            epsilonWallFunction;
        value           nonuniform List<scalar> 2(0.000839778 0.0012504);
    }
    sun
    {
        Cmu             0.09;
        kappa           0.41;
        E               9.8;
        type            epsilonWallFunction;
        value           nonuniform List<scalar> 
14
(
0.000924834
0.0013052
0.00165028
0.00129394
0.000776214
0.000485943
0.000278467
0.000192996
0.00014397
0.000112582
9.47772e-05
8.4189e-05
7.72023e-05
7.23673e-05
)
;
    }
    heatsource1
    {
        Cmu             0.09;
        kappa           0.41;
        E               9.8;
        type            epsilonWallFunction;
        value           nonuniform List<scalar> 3(0.000872259 0.00063403 0.000430186);
    }
    heatsource2
    {
        Cmu             0.09;
        kappa           0.41;
        E               9.8;
        type            epsilonWallFunction;
        value           nonuniform List<scalar> 4(8.76758e-05 3.40072e-05 3.40072e-05 0.000125001);
    }
    Table_master
    {
        Cmu             0.09;
        kappa           0.41;
        E               9.8;
        type            epsilonWallFunction;
        value           nonuniform List<scalar> 9(3.02364e-05 1.61288e-05 9.92479e-06 6.2473e-06 3.98841e-06 9.05929e-06 2.31151e-05 4.25755e-05 7.80143e-05);
    }
    Table_slave
    {
        Cmu             0.09;
        kappa           0.41;
        E               9.8;
        type            epsilonWallFunction;
        value           nonuniform List<scalar> 9(0.000119389 0.000121336 0.000124916 0.000128721 0.000132824 0.000138062 0.00014669 0.000160704 0.000187759);
    }
    inlet
    {
        type            turbulentMixingLengthDissipationRateInlet;
        mixingLength    0.01;
        phi             phi;
        k               k;
        value           uniform 3.77336e-06;
    }
    outlet
    {
        type            zeroGradient;
    }
}


// ************************************************************************* //
