/*--------------------------------*- C++ -*----------------------------------*\
  =========                 |
  \\      /  F ield         | OpenFOAM: The Open Source CFD Toolbox
   \\    /   O peration     | Website:  https://openfoam.org
    \\  /    A nd           | Version:  6
     \\/     M anipulation  |
\*---------------------------------------------------------------------------*/
FoamFile
{
    version     2.0;
    format      ascii;
    class       volScalarField;
    location    "200";
    object      nut;
}
// * * * * * * * * * * * * * * * * * * * * * * * * * * * * * * * * * * * * * //

dimensions      [0 2 -1 0 0 0 0];

internalField   nonuniform List<scalar> 
459
(
0.00137737
0.00154498
0.00167061
0.00154043
0.00129916
0.0011114
0.000923145
0.000816951
0.000740927
0.000682624
0.000644569
0.000619623
0.000601996
0.000589168
0.000577305
0.000316234
0.000337069
0.000326048
0.000280539
0.000244131
0.000226985
0.000225517
0.00022878
0.000217286
0.000200983
0.00018906
0.000193291
0.000228994
0.000251793
0.000308286
0.000385827
0.000428487
0.000417826
0.00037146
0.00138892
0.00263938
0.00374695
0.0050658
0.00534126
0.00500116
0.004178
0.00305735
0.00260778
0.00274198
0.00280977
0.00263008
0.00235019
0.00196323
0.0013902
0.000628106
0.000458047
0.000384557
0.00108672
0.00113552
0.00117382
0.00107086
0.000835578
0.000674508
0.000598599
0.000485291
0.000353203
0.000259191
0.000248236
0.00033454
0.000519141
0.000849855
0.00134473
0.00139093
0.00139904
0.000485146
0.00221841
0.0027753
0.00304393
0.00341045
0.00407162
0.00463808
0.00488916
0.00469521
0.0036628
0.00331395
0.00362511
0.00349356
0.00308468
0.00255909
0.00192192
0.00127199
0.000706974
0.000687614
0.00225973
0.00202714
0.0018798
0.00155002
0.00111727
0.000440489
0.000357237
0.000303835
0.00026037
0.0002242
0.000294948
0.000402797
0.000493677
0.000604073
0.00148491
0.00142784
0.00113136
0.000584532
0.00331567
0.00378775
0.00370048
0.00357989
0.00372567
0.00417484
0.00470349
0.00504286
0.00461183
0.00396781
0.00430859
0.00441
0.00401432
0.00342319
0.00267439
0.00187542
0.00125561
0.000985778
0.00236413
0.00244665
0.00244584
0.00209258
0.00163609
0.00111563
0.00069607
0.000699824
0.000706632
0.000713729
0.000721225
0.00073058
0.000745494
0.000768518
0.000809432
0.00196788
0.00266483
0.00279525
0.000974274
0.00358913
0.00453387
0.00424966
0.00386744
0.00377065
0.00406643
0.00462919
0.00518231
0.00511108
0.00470435
0.00503613
0.00547072
0.00541167
0.00520568
0.00493372
0.00458731
0.0042134
0.00391931
0.00386343
0.00390914
0.00392019
0.00382413
0.00368371
0.003549
0.00344435
0.00341852
0.00338495
0.00334129
0.00329859
0.0032759
0.00329288
0.00335611
0.00346522
0.00362449
0.00371603
0.00362686
0.00303752
0.00135067
0.00121445
0.00106717
0.00380209
0.00496709
0.00449933
0.00389117
0.00373361
0.00400798
0.00462017
0.00529364
0.00537809
0.00508183
0.0054966
0.0061025
0.00624185
0.00624726
0.00622943
0.00616745
0.00604115
0.00585929
0.00565014
0.00542492
0.00521081
0.00504168
0.00491363
0.00480577
0.00469494
0.00456865
0.00441811
0.00425037
0.00408734
0.00396136
0.00389845
0.00390163
0.00394805
0.0039977
0.00403226
0.00399673
0.0036907
0.00307599
0.00233361
0.00113814
0.00402901
0.00485198
0.00381801
0.00372641
0.00370563
0.00403383
0.00467632
0.00535513
0.00547714
0.00524444
0.00564202
0.00630507
0.00653694
0.00663158
0.0067065
0.00673999
0.00670077
0.00657617
0.00637778
0.00614239
0.00592063
0.00574826
0.00562355
0.00552166
0.00541009
0.00526596
0.00507834
0.00484857
0.00459555
0.0043542
0.00415513
0.00400894
0.0039045
0.00380522
0.00366093
0.00341081
0.00300107
0.00248075
0.00194587
0.00110853
0.0043281
0.00474069
0.00382387
0.00347582
0.00387648
0.00424937
0.00481232
0.00539161
0.00551121
0.00531442
0.00560351
0.00617235
0.00644751
0.00657739
0.00667942
0.00674337
0.0067442
0.00666547
0.00651244
0.00631731
0.00612845
0.00598508
0.00589925
0.00585933
0.00583811
0.00580288
0.00572299
0.00557807
0.00536948
0.00512742
0.00486736
0.00456053
0.00420245
0.0038125
0.00341788
0.00304952
0.00272859
0.00241551
0.00210659
0.00133367
0.0048202
0.00563573
0.00726709
0.00355412
0.00410926
0.00479224
0.0051326
0.00553278
0.00562114
0.00538272
0.00539831
0.00572621
0.00600349
0.00614066
0.00622307
0.00627084
0.00627734
0.00622899
0.00612213
0.00597396
0.00581974
0.00569717
0.00563323
0.00564224
0.00572688
0.00586879
0.00603086
0.006165
0.00622832
0.00618173
0.00603788
0.00586347
0.00571214
0.00562876
0.00558307
0.00532971
0.00459313
0.00395261
0.00384793
0.00152301
0.0119229
0.0061245
0.00373093
0.00548813
0.00569007
0.00587962
0.00581914
0.00544191
0.00523848
0.00524914
0.0053123
0.00533131
0.00532704
0.00531335
0.00529063
0.00524966
0.00518113
0.00508546
0.00497628
0.00487598
0.0048096
0.00480265
0.00488103
0.00506594
0.00535945
0.00572592
0.00608262
0.0062874
0.00633475
0.00627772
0.00617622
0.00608125
0.00600699
0.0059079
0.0056216
0.00488962
0.00457006
0.00149872
0.00495467
0.00325854
0.00511488
0.00563391
0.00572076
0.00570832
0.00533074
0.00486084
0.00452208
0.00432033
0.00417813
0.00404727
0.00394058
0.00385945
0.00379812
0.00374737
0.00369764
0.00364245
0.00358111
0.00351913
0.00346706
0.00343984
0.0034574
0.00354538
0.00373215
0.00403673
0.0044435
0.00485327
0.00515597
0.00532503
0.00537884
0.00534655
0.00524548
0.00505908
0.00459673
0.00389612
0.00368726
0.00131512
0.00233587
0.00285556
0.00350909
0.00167001
0.00162045
0.00177368
0.00178998
0.00172039
0.00160845
0.00150247
0.00141164
0.00133355
0.00126602
0.00120837
0.00115789
0.00111289
0.00107222
0.00103501
0.00100053
0.000968151
0.00093742
0.000908114
0.000880293
0.000854332
0.000830998
0.000811592
0.000798104
0.000793255
0.000800276
0.000829782
0.000883612
0.000951963
0.00101864
0.00106855
0.0010921
0.00108391
0.00106112
0.00102986
0.00103659
0.000989016
)
;

boundaryField
{
    floor
    {
        type            nutkWallFunction;
        Cmu             0.09;
        kappa           0.41;
        E               9.8;
        value           nonuniform List<scalar> 
29
(
6.95035e-05
3.56078e-05
3.84112e-05
3.69214e-05
3.07176e-05
2.56642e-05
2.32516e-05
2.30466e-05
2.35111e-05
2.18836e-05
1.95491e-05
1.78228e-05
1.84286e-05
2.35405e-05
2.67444e-05
3.45233e-05
4.4906e-05
5.04988e-05
4.91056e-05
4.30006e-05
4.30005e-05
5.78178e-05
7.04226e-05
0.000117697
6.95035e-05
3.56077e-05
4.47424e-05
8.32231e-05
0.000119024
)
;
    }
    ceiling
    {
        type            nutkWallFunction;
        Cmu             0.09;
        kappa           0.41;
        E               9.8;
        value           nonuniform List<scalar> 
43
(
0.000269775
0.000324889
0.000392761
0.000197163
0.000191654
0.000208658
0.000210457
0.000202761
0.000190312
0.00017844
0.000168191
0.000159323
0.000151606
0.000144982
0.000139153
0.000133932
0.000129193
0.000124839
0.000120788
0.00011697
0.000113332
0.000109851
0.000106534
0.000103428
0.000100628
9.8292e-05
9.66655e-05
9.60809e-05
9.69308e-05
0.000100488
0.000106938
0.000115062
0.000122921
0.000128766
0.000131513
0.000130558
0.000127898
0.000124238
0.000125026
0.000119435
0.000525425
0.000606004
0.000538716
)
;
    }
    sWall
    {
        type            nutkWallFunction;
        Cmu             0.09;
        kappa           0.41;
        E               9.8;
        value           uniform 0.000269837;
    }
    nWall
    {
        type            nutkWallFunction;
        Cmu             0.09;
        kappa           0.41;
        E               9.8;
        value           nonuniform List<scalar> 6(0.000128608 0.000136866 0.000133428 0.000178012 0.000157221 0.000119442);
    }
    sideWalls
    {
        type            empty;
    }
    glass1
    {
        type            nutkWallFunction;
        Cmu             0.09;
        kappa           0.41;
        E               9.8;
        value           nonuniform List<scalar> 9(0.000164494 0.000165809 0.000257511 0.000373392 0.000401584 0.000423383 0.000446475 0.000476712 0.000526019);
    }
    glass2
    {
        type            nutkWallFunction;
        Cmu             0.09;
        kappa           0.41;
        E               9.8;
        value           nonuniform List<scalar> 2(0.000159395 0.00018081);
    }
    sun
    {
        type            nutkWallFunction;
        Cmu             0.09;
        kappa           0.41;
        E               9.8;
        value           nonuniform List<scalar> 
14
(
0.000164316
0.000183216
0.000197236
0.000182698
0.000155393
0.000133756
0.000111643
9.89444e-05
8.97344e-05
8.2595e-05
7.78954e-05
7.47966e-05
7.25975e-05
7.0992e-05
)
;
    }
    heatsource1
    {
        type            nutkWallFunction;
        Cmu             0.09;
        kappa           0.41;
        E               9.8;
        value           nonuniform List<scalar> 3(0.000161258 0.000145672 0.000128599);
    }
    heatsource2
    {
        type            nutkWallFunction;
        Cmu             0.09;
        kappa           0.41;
        E               9.8;
        value           nonuniform List<scalar> 4(7.58506e-05 5.43338e-05 5.43338e-05 8.55751e-05);
    }
    Table_master
    {
        type            nutkWallFunction;
        Cmu             0.09;
        kappa           0.41;
        E               9.8;
        value           nonuniform List<scalar> 9(5.20601e-05 4.11188e-05 3.39319e-05 2.79607e-05 2.28874e-05 3.26998e-05 4.71411e-05 5.89174e-05 7.28652e-05);
    }
    Table_slave
    {
        type            nutkWallFunction;
        Cmu             0.09;
        kappa           0.41;
        E               9.8;
        value           nonuniform List<scalar> 9(8.42526e-05 8.47141e-05 8.55494e-05 8.64191e-05 8.73366e-05 8.84796e-05 9.02974e-05 9.30955e-05 9.80435e-05);
    }
    inlet
    {
        type            calculated;
        value           uniform 3.3541e-05;
    }
    outlet
    {
        type            calculated;
        value           nonuniform List<scalar> 2(0.00233587 0.00285556);
    }
}


// ************************************************************************* //
