/*--------------------------------*- C++ -*----------------------------------*\
  =========                 |
  \\      /  F ield         | OpenFOAM: The Open Source CFD Toolbox
   \\    /   O peration     | Website:  https://openfoam.org
    \\  /    A nd           | Version:  6
     \\/     M anipulation  |
\*---------------------------------------------------------------------------*/
FoamFile
{
    version     2.0;
    format      ascii;
    class       surfaceScalarField;
    location    "200";
    object      phi;
}
// * * * * * * * * * * * * * * * * * * * * * * * * * * * * * * * * * * * * * //

dimensions      [1 0 -1 0 0 0 0];

internalField   nonuniform List<scalar> 
852
(
-0.00364695
0.00369741
-0.00341171
-0.000235043
-0.00250097
-0.000910557
-0.00222245
-0.000278392
-0.00265086
0.000428509
-0.00315004
0.000499278
-0.00321381
6.38509e-05
-0.00300735
-0.000206367
-0.00258863
-0.000418637
-0.0021215
-0.000467035
-0.00169503
-0.000426379
-0.00131362
-0.000381321
-0.000949365
-0.00036416
-0.000532791
-0.000416482
-0.000529506
-0.000897437
0.000902651
-0.000989036
9.1511e-05
-0.000870427
-0.000118646
-0.000790425
-7.99901e-05
-0.00077495
-1.54349e-05
-0.000802321
2.74272e-05
-0.000813182
1.09195e-05
-0.000708041
-0.00010508
-0.000583031
-0.000124947
-0.000424235
-0.000158728
-0.000179985
-0.00024418
0.000152708
-0.000332614
0.000372974
-0.000220193
0.000480283
-0.000107245
0.000590581
-0.000110232
0.000740088
-0.000149435
0.000904206
-0.000164036
0.000840006
6.42874e-05
0.000845202
6.07074e-05
0.00378207
0.00180881
-0.001983
0.00264282
-0.00174441
0.00230548
5.91143e-05
0.00130015
0.001434
-0.000147827
0.00194742
-0.0015588
0.00147492
-0.00233172
0.000566643
-0.00226355
-0.000486722
-0.00202509
-0.000705409
-0.00176367
-0.000687699
-0.00148136
-0.000663538
-0.00115538
-0.000690054
-0.000800742
-0.000771027
-0.000478904
-0.000851255
0.000219095
-0.000697965
0.000219126
0.000467344
0.000449136
0.000425228
0.000133601
0.000204372
0.000102213
0.000161677
-3.72464e-05
0.000248214
-0.000101881
0.000189769
8.59659e-05
-1.48709e-05
0.000215638
-0.000160347
4.04387e-05
-0.000201437
-8.3793e-05
-0.000184171
-0.000175926
-0.000122749
-0.000305534
-5.46235e-05
-0.00040065
-5.34317e-05
-0.000221298
-9.49784e-05
-6.56255e-05
-0.000126329
-7.87938e-05
1.83099e-05
-0.000293972
0.000290268
-0.000435892
0.000349813
4.84019e-06
0.00120797
0.00630679
-0.00232879
0.00822156
-0.00389762
0.0080953
-0.00161801
0.00703124
0.00112331
0.00547333
0.00299206
0.00365606
0.00376482
0.0016083
0.0035228
-0.00035084
0.00252587
-0.00150934
0.000671853
-0.00173962
-0.000475038
-0.0017542
-0.000673027
-0.00169155
-0.000726096
-0.00157534
-0.000806168
-0.0014277
-0.00091857
-0.0012725
-0.00100637
-0.000999708
-0.00097067
-0.000780502
-5.80647e-05
0.000522329
-0.000345184
0.000420773
-0.000412121
0.000169239
-0.000394002
-5.52525e-05
-0.000262572
-0.000233197
0.000279787
-0.000456285
0.000495671
0.000536352
0.000452785
0.000277068
-2.82712e-05
-0.00042864
-0.000649651
-0.000715002
-0.000793524
-0.000820178
-0.000267206
-0.00129845
4.24784e-05
-0.00140458
0.000111051
-0.000178156
0.00728946
-0.00939315
0.00901844
-0.00562651
0.00848618
-0.00108565
0.0074128
0.00219679
0.00602671
0.00437825
0.00437475
0.0054169
0.00259008
0.00530758
0.000892167
0.00422386
-0.000606807
0.00217088
-0.00134777
0.000266007
-0.00167256
-0.000348147
-0.00184131
-0.000557241
-0.00195317
-0.000694214
-0.00205576
-0.000815887
-0.00216675
-0.000895291
-0.00226308
-0.000874256
-0.00243157
-0.000611937
-0.00209116
-0.000327408
-0.0016697
0.000100922
-0.00150164
0.000252785
-0.00143577
0.000103476
-0.00142567
-6.52471e-05
-0.00143417
-0.000224591
-0.00157943
-0.00031091
-0.00132447
-0.000254997
-0.00107311
-0.000251396
-0.000813073
-0.000260074
-0.000549718
-0.000263389
-0.000292445
-0.000257304
-5.05796e-05
-0.000241895
0.000165884
-0.00021649
0.000354958
-0.000189097
0.00051941
-0.000164471
0.000448405
-0.000196066
0.000568768
-7.77665e-05
0.000589868
9.00594e-05
0.000427349
0.00395937
-0.0130723
0.00495601
-0.00662306
0.0048597
-0.000989237
0.00450089
0.0025557
0.00385382
0.00502543
0.00291958
0.00635124
0.00182251
0.00640475
0.000723292
0.00532315
-0.000264041
0.00315826
-0.00103518
0.00103722
-0.00148258
9.93498e-05
-0.00174892
-0.000290801
-0.00194361
-0.000499418
-0.00211494
-0.000644456
-0.00227876
-0.000731373
-0.0024284
-0.00072452
-0.00246102
-0.000579225
-0.00242904
-0.000359296
-0.00219898
-0.000129059
-0.00192711
-1.89881e-05
-0.00175587
-6.7656e-05
-0.00165009
-0.000170917
-0.00159033
-0.000284236
-0.00154231
-0.000358808
-0.00141088
-0.00038631
-0.00125155
-0.000410604
-0.00108317
-0.00042832
-0.000914946
-0.000431484
-0.00075624
-0.000415876
-0.000613505
-0.000384493
-0.000483401
-0.000346453
-0.000352339
-0.000320015
-0.000185652
-0.000331012
3.05348e-05
-0.000412106
0.000468166
-0.000515257
0.00115529
-0.000596939
0.0022736
-0.000690843
0.00282445
-0.000550928
0.0022673
0.00055708
0.00231089
0.00114293
-0.0138789
0.00162952
-0.00710954
0.00206568
-0.0014253
0.00169088
0.00293061
0.00138513
0.00533129
0.00102498
0.0067115
0.000587093
0.00684273
0.000122815
0.0057875
-0.000337966
0.00361907
-0.00083876
0.00153809
-0.00120889
0.000469576
-0.00145662
-4.29688e-05
-0.00163645
-0.000319479
-0.00179093
-0.000489869
-0.00193325
-0.000588945
-0.0020512
-0.000606468
-0.00209626
-0.000534056
-0.00205699
-0.000398469
-0.00192279
-0.000263152
-0.0017509
-0.000190777
-0.00161521
-0.00020323
-0.00152311
-0.000262904
-0.00146867
-0.00033856
-0.00142556
-0.000401801
-0.00136727
-0.000444475
-0.00130171
-0.00047604
-0.0012387
-0.000491196
-0.00118772
-0.000482332
-0.00115727
-0.000446183
-0.00115167
-0.000389951
-0.00116616
-0.000331826
-0.00118689
-0.000299135
-0.00118977
-0.000327983
-0.00114641
-0.000455318
-0.000965656
-0.000695871
-0.000489293
-0.00107316
0.000376041
-0.00155604
0.00142802
-0.00160277
0.00172267
0.000262574
0.00408392
-0.000513511
-0.0129744
-0.000174485
-0.00744846
-0.000171864
-0.00142781
-0.000936376
0.00369523
-0.000859516
0.00525454
-0.000625081
0.00647716
-0.000461219
0.00667895
-0.000384295
0.00571063
-0.000444756
0.00367956
-0.000649424
0.00174283
-0.00085011
0.000670357
-0.00101414
0.000121165
-0.00114407
-0.000189437
-0.00125744
-0.000376381
-0.00136135
-0.00048493
-0.00144517
-0.000522536
-0.00148541
-0.000493705
-0.00146475
-0.000419016
-0.00139032
-0.000337476
-0.00129367
-0.000287313
-0.00121342
-0.000283373
-0.00116347
-0.000312746
-0.00114394
-0.000357974
-0.00114377
-0.00040185
-0.00115339
-0.000434731
-0.00117673
-0.000452576
-0.00122256
-0.000445238
-0.00130299
-0.000401775
-0.00143166
-0.000317374
-0.00161857
-0.000202902
-0.00186131
-8.89432e-05
-0.00214429
-1.60044e-05
-0.0024464
-2.57398e-05
-0.00274253
-0.000159043
-0.0029883
-0.000449967
-0.0031189
-0.000942436
-0.00301001
-0.0016648
-0.00231835
-0.0022943
-0.000578418
-0.00147722
0.00356592
-0.00286035
-0.0096726
-0.00412668
-0.00618203
-0.00365961
-0.00189477
-0.00345728
0.00349301
-0.00264583
0.00444318
-0.00179527
0.0056267
-0.00110284
0.00598659
-0.000603193
0.00521103
-0.000326883
0.00340328
-0.000275694
0.00169171
-0.000324416
0.000719173
-0.000394854
0.00019171
-0.000465809
-0.00011837
-0.000535731
-0.000306344
-0.000606456
-0.000414089
-0.000669201
-0.000459674
-0.000708558
-0.000454234
-0.000712915
-0.000414545
-0.000685849
-0.000364429
-0.000645765
-0.000327286
-0.000614784
-0.000314242
-0.00060521
-0.000322208
-0.000620414
-0.000342657
-0.00065713
-0.000365021
-0.000712178
-0.000379566
-0.000788876
-0.000375758
-0.000895358
-0.000338634
-0.00104493
-0.000252081
-0.00125597
-0.000106196
-0.00155368
9.49366e-05
-0.00197282
0.000330336
-0.00254069
0.000552
-0.00325062
0.000684325
-0.00405936
0.000649831
-0.00489382
0.000384616
-0.00573362
-0.000102519
-0.00675757
-0.000640732
-0.00786581
-0.00118594
-0.00710135
-0.00224157
-0.00325696
-0.00919471
-0.0153795
-0.0100387
-0.00723547
-0.00592449
-0.000621084
-0.00384727
0.00236605
-0.00240046
0.00417997
-0.00127228
0.00485848
-0.000418008
0.0043568
0.000170901
0.00281441
0.000413343
0.00144933
0.000478174
0.000654432
0.000475728
0.000194258
0.000444593
-8.71261e-05
0.000398079
-0.000259718
0.000339569
-0.000355463
0.000276858
-0.000396845
0.000222224
-0.000399481
0.000185308
-0.00037751
0.00016677
-0.000345774
0.00015734
-0.000317741
0.000144193
-0.00030098
0.000118089
-0.000295991
7.47722e-05
-0.000299227
1.45975e-05
-0.000304734
-5.93309e-05
-0.000305527
-0.000143004
-0.000291974
-0.000231045
-0.000250479
-0.000316693
-0.000166319
-0.000394166
-2.86055e-05
-0.000468842
0.000169735
-0.00055124
0.00041286
-0.000645079
0.000645968
-0.000749947
0.000789322
-0.000873532
0.000773542
-0.00107068
0.000581888
-0.00144278
0.0002697
-0.00199795
-8.54428e-05
-0.00263401
-0.000549768
-0.00262474
-0.00225074
-0.00558062
-0.00818644
0.00131604
-0.00596054
-0.0028469
-0.0039189
0.000324506
-0.00228581
0.00254697
-0.000918984
0.00349172
0.00025848
0.00317939
0.00107507
0.00199788
0.0014544
0.00107007
0.00161132
0.000497594
0.00165501
0.00015066
0.00163587
-6.78787e-05
0.0015785
-0.000202244
0.00149787
-0.000274722
0.00140639
-0.000305246
0.00131546
-0.000308433
0.0012336
-0.000295532
0.00116375
-0.000275798
0.00110262
-0.000256498
0.0010436
-0.000241838
0.000980403
-0.000232676
0.000908915
-0.000227622
0.00082809
-0.000223796
0.00073996
-0.000217285
0.000650459
-0.000202363
0.000570597
-0.000170509
0.000515639
-0.000111256
0.000502082
-1.49433e-05
0.000545731
0.000126192
0.000652823
0.000305879
0.000814541
0.000484366
0.00100496
0.000599018
0.00118662
0.000592006
0.00132947
0.000439153
0.00144897
0.000150319
0.00161063
-0.000246991
0.00187797
-0.000817006
0.00165693
-0.0020296
-0.00385554
-0.00173914
0.00305189
-0.00305217
-0.00153378
-0.00277937
5.17872e-05
-0.00161318
0.00138085
-9.34022e-05
0.00197202
0.00137978
0.00170626
0.00231387
0.00106386
0.00280673
0.000577294
0.00303132
0.000273082
0.00309875
8.33259e-05
0.00306731
-3.63455e-05
0.00297222
-0.000107051
0.00284396
-0.000146354
0.00270206
-0.000163247
0.00255987
-0.000166127
0.00242559
-0.000161134
0.00230254
-0.000152627
0.00218978
-0.000143625
0.00208385
-0.000135782
0.00198073
-0.000129444
0.00187729
-0.000124057
0.00177212
-0.000118516
0.00166633
-0.000111373
0.00156479
-0.000100716
0.00147817
-8.37876e-05
0.00142358
-5.65541e-05
0.00142286
-1.41255e-05
0.00149775
5.13929e-05
0.00166532
0.00013841
0.00191803
0.000231753
0.00221959
0.000297555
0.00251241
0.000299294
0.0027341
0.000217561
0.00283413
5.03952e-05
0.00278496
-0.000197725
0.002501
-0.000532949
0.00154686
-0.00107537
-0.00222542
-0.00264183
-0.00388744
-0.00084027
-0.00238509
-0.00234491
-0.000974842
0.000987252
0.00268514
0.00374139
0.00431143
0.00457742
0.00465372
0.00461037
0.00449639
0.0043432
0.00417324
0.00400057
0.00383308
0.00367432
0.00352482
0.00338346
0.00324875
0.00311979
0.00299676
0.00288132
0.00277701
0.00269018
0.00263121
0.00261535
0.00266581
0.00280413
0.00303657
0.00333542
0.00363647
0.00385611
0.00390885
0.00371369
0.00318353
0.00211109
)
;

boundaryField
{
    floor
    {
        type            calculated;
        value           nonuniform List<scalar> 
29
(
0
0
0
0
0
0
0
0
0
0
0
0
0
0
0
0
0
0
0
0
-5.10706e-06
-1.28608e-05
-1.83811e-05
-1.5515e-05
-3.19447e-06
-5.31551e-06
-1.39034e-05
-1.51614e-05
-1.2931e-05
)
;
    }
    ceiling
    {
        type            calculated;
        value           nonuniform List<scalar> 
43
(
7.67911e-06
5.81067e-06
4.80214e-06
1.11203e-05
1.16981e-05
1.0866e-05
9.99369e-06
8.44291e-06
7.69277e-06
7.3375e-06
7.17674e-06
7.12055e-06
7.09247e-06
7.02877e-06
6.93431e-06
6.80951e-06
6.65333e-06
6.46458e-06
6.24263e-06
5.98759e-06
5.69977e-06
5.37891e-06
5.02345e-06
4.63e-06
4.1927e-06
3.70286e-06
3.14979e-06
2.52522e-06
1.83103e-06
1.02666e-06
1.76275e-07
-5.9846e-07
-1.21583e-06
-1.66933e-06
-1.99933e-06
-2.25312e-06
-2.48302e-06
-2.71059e-06
-2.85061e-06
-2.25287e-06
4.45628e-06
2.86386e-06
3.38e-06
)
;
    }
    sWall
    {
        type            calculated;
        value           uniform -0.000159589;
    }
    nWall
    {
        type            calculated;
        value           nonuniform List<scalar> 6(-4.36464e-05 -5.0207e-05 -6.02546e-05 -6.80546e-05 -8.31742e-05 -0.000112);
    }
    sideWalls
    {
        type            empty;
        value           nonuniform 0();
    }
    glass1
    {
        type            calculated;
        value           nonuniform List<scalar> 9(-5.02531e-05 -0.000145168 -0.000195746 -0.000225018 -0.000280136 -0.000336189 -0.000390953 -0.000441325 -0.000482247);
    }
    glass2
    {
        type            calculated;
        value           nonuniform List<scalar> 2(-0.000278367 -0.000300995);
    }
    sun
    {
        type            calculated;
        value           uniform 0;
    }
    heatsource1
    {
        type            calculated;
        value           nonuniform List<scalar> 3(2.03844e-07 2.0393e-07 2.04234e-07);
    }
    heatsource2
    {
        type            calculated;
        value           nonuniform List<scalar> 4(5.13444e-08 5.14379e-08 0 0);
    }
    Table_master
    {
        type            calculated;
        value           nonuniform List<scalar> 9(-1.54407e-07 -1.54502e-07 -1.54564e-07 -1.54644e-07 -1.54739e-07 -1.54681e-07 -1.54509e-07 -1.54405e-07 -1.54283e-07);
    }
    Table_slave
    {
        type            calculated;
        value           nonuniform List<scalar> 9(1.53546e-07 1.53634e-07 1.53713e-07 1.53794e-07 1.53877e-07 1.53957e-07 1.53976e-07 1.53924e-07 1.5385e-07);
    }
    inlet
    {
        type            calculated;
        value           uniform -0.000364958;
    }
    outlet
    {
        type            calculated;
        value           nonuniform List<scalar> 2(0.00279383 0.00123988);
    }
}


// ************************************************************************* //
