/*--------------------------------*- C++ -*----------------------------------*\
  =========                 |
  \\      /  F ield         | OpenFOAM: The Open Source CFD Toolbox
   \\    /   O peration     | Website:  https://openfoam.org
    \\  /    A nd           | Version:  6
     \\/     M anipulation  |
\*---------------------------------------------------------------------------*/
FoamFile
{
    version     2.0;
    format      ascii;
    class       volScalarField;
    location    "200";
    object      T;
}
// * * * * * * * * * * * * * * * * * * * * * * * * * * * * * * * * * * * * * //

dimensions      [0 0 0 1 0 0 0];

internalField   nonuniform List<scalar> 
459
(
304.053
303.868
303.761
303.353
303.014
302.841
302.743
302.705
302.681
302.662
302.649
302.641
302.636
302.633
302.635
302.298
302.237
302.188
302.121
302.06
302.026
302.014
302.012
302.012
302.015
302.02
302.03
302.052
302.063
302.088
302.127
302.14
302.129
302.128
304.422
304.714
304.68
304.505
304.166
303.728
303.173
302.907
302.786
302.724
302.697
302.683
302.672
302.66
302.642
302.615
302.544
302.348
302.36
302.367
302.358
302.341
302.266
302.157
302.061
302.049
302.051
302.052
302.064
302.106
302.139
302.198
302.262
302.225
302.167
302.138
304.89
304.865
304.843
304.81
304.658
304.364
303.962
303.529
302.978
302.802
302.75
302.732
302.719
302.703
302.679
302.647
302.613
302.451
302.462
302.482
302.516
302.549
302.551
302.332
302.246
302.194
302.15
302.108
302.119
302.203
302.271
302.332
302.388
302.295
302.253
302.221
305.057
304.849
304.808
304.797
304.741
304.574
304.271
303.861
303.315
302.905
302.807
302.786
302.775
302.76
302.734
302.699
302.656
302.619
302.582
302.605
302.65
302.693
302.721
302.738
302.751
302.754
302.758
302.762
302.767
302.771
302.775
302.777
302.769
302.716
302.651
302.601
302.609
304.919
304.592
304.567
304.635
304.677
304.601
304.365
303.979
303.435
302.988
302.866
302.845
302.842
302.837
302.823
302.803
302.778
302.755
302.738
302.743
302.767
302.787
302.8
302.807
302.812
302.816
302.822
302.829
302.838
302.848
302.859
302.87
302.881
302.884
302.886
302.883
302.879
302.914
302.907
302.912
304.797
304.376
304.4
304.527
304.625
304.586
304.37
303.986
303.436
303.037
302.924
302.905
302.91
302.913
302.909
302.897
302.881
302.865
302.854
302.851
302.854
302.859
302.863
302.864
302.865
302.867
302.872
302.881
302.895
302.913
302.933
302.954
302.977
303
303.023
303.044
303.063
303.069
303.006
302.955
304.67
304.27
304.366
304.523
304.596
304.542
304.319
303.931
303.422
303.08
302.979
302.968
302.979
302.991
302.995
302.99
302.978
302.964
302.952
302.943
302.938
302.934
302.93
302.926
302.921
302.918
302.919
302.926
302.941
302.965
302.993
303.022
303.05
303.075
303.097
303.113
303.123
303.122
303.091
302.97
304.532
304.231
304.348
304.511
304.537
304.46
304.238
303.87
303.424
303.136
303.045
303.037
303.054
303.072
303.084
303.085
303.078
303.066
303.053
303.04
303.029
303.019
303.009
302.999
302.987
302.975
302.966
302.963
302.971
302.992
303.021
303.053
303.082
303.106
303.126
303.142
303.157
303.173
303.19
303.212
304.39
304.128
304.116
304.418
304.438
304.353
304.152
303.831
303.455
303.225
303.149
303.136
303.147
303.165
303.178
303.183
303.181
303.172
303.159
303.145
303.131
303.116
303.102
303.086
303.068
303.049
303.029
303.012
303.001
303.001
303.012
303.029
303.048
303.063
303.071
303.079
303.097
303.119
303.15
303.242
303.713
304.195
304.297
304.243
304.085
303.822
303.525
303.373
303.308
303.285
303.282
303.286
303.291
303.293
303.29
303.282
303.271
303.256
303.241
303.224
303.206
303.187
303.166
303.142
303.116
303.09
303.064
303.044
303.033
303.031
303.035
303.04
303.043
303.043
303.044
303.049
303.06
303.1
303.909
304.119
304.166
304.155
304.052
303.832
303.653
303.555
303.502
303.474
303.458
303.446
303.437
303.428
303.418
303.406
303.392
303.376
303.359
303.34
303.32
303.299
303.276
303.251
303.224
303.193
303.161
303.129
303.1
303.078
303.064
303.056
303.051
303.047
303.047
303.05
303.058
303.104
304.008
303.94
303.941
304.073
304.094
304.096
304.033
303.89
303.801
303.745
303.709
303.683
303.662
303.642
303.623
303.603
303.583
303.563
303.543
303.522
303.501
303.478
303.456
303.433
303.409
303.384
303.359
303.332
303.303
303.271
303.235
303.2
303.169
303.144
303.125
303.112
303.101
303.092
303.085
303.118
)
;

boundaryField
{
    floor
    {
        type            wallHeatTransfer;
        Tinf            uniform 305.2;
        alphaWall       uniform 0.24;
        value           nonuniform List<scalar> 
29
(
303.06
303.006
302.933
302.909
302.926
302.949
302.961
302.955
302.947
302.972
303.015
303.05
303.046
302.974
302.935
302.859
302.791
302.758
302.759
302.807
302.807
302.708
302.71
302.904
303.06
303.006
302.965
302.854
302.91
)
;
    }
    ceiling
    {
        type            wallHeatTransfer;
        Tinf            uniform 303.2;
        alphaWall       uniform 0.24;
        value           nonuniform List<scalar> 
43
(
303.961
303.904
303.911
304.007
304.025
304.032
303.974
303.839
303.754
303.7
303.665
303.64
303.619
303.599
303.58
303.561
303.543
303.524
303.505
303.485
303.465
303.445
303.424
303.403
303.382
303.36
303.338
303.314
303.289
303.262
303.231
303.2
303.172
303.15
303.133
303.121
303.112
303.104
303.097
303.128
304.353
304.103
303.887
)
;
    }
    sWall
    {
        type            wallHeatTransfer;
        Tinf            uniform 315.2;
        alphaWall       uniform 0.36;
        value           uniform 304.949;
    }
    nWall
    {
        type            wallHeatTransfer;
        Tinf            uniform 307.2;
        alphaWall       uniform 0.36;
        value           nonuniform List<scalar> 6(303.563 303.57 303.594 303.585 303.638 303.773);
    }
    sideWalls
    {
        type            empty;
    }
    glass1
    {
        type            wallHeatTransfer;
        Tinf            uniform 315.2;
        alphaWall       uniform 4.3;
        value           nonuniform List<scalar> 9(311.156 311.274 310.436 309.622 309.369 309.169 308.964 308.719 308.389);
    }
    glass2
    {
        type            wallHeatTransfer;
        Tinf            uniform 307.2;
        alphaWall       uniform 4.3;
        value           nonuniform List<scalar> 2(305.765 305.67);
    }
    sun
    {
        type            wallHeatTransfer;
        Tinf            uniform 305.2;
        alphaWall       uniform 0.24;
        value           nonuniform List<scalar> 
14
(
304.153
303.975
303.87
303.501
303.214
303.085
303.034
303.029
303.031
303.036
303.041
303.045
303.049
303.052
)
;
    }
    heatsource1
    {
        type            fixedGradient;
        gradient        uniform 0;
    }
    heatsource2
    {
        type            fixedGradient;
        gradient        uniform 0;
    }
    Table_master
    {
        type            zeroGradient;
    }
    Table_slave
    {
        type            zeroGradient;
    }
    inlet
    {
        type            fixedValue;
        value           uniform 290.15;
    }
    outlet
    {
        type            zeroGradient;
    }
}


// ************************************************************************* //
