/*--------------------------------*- C++ -*----------------------------------*\
  =========                 |
  \\      /  F ield         | OpenFOAM: The Open Source CFD Toolbox
   \\    /   O peration     | Website:  https://openfoam.org
    \\  /    A nd           | Version:  6
     \\/     M anipulation  |
\*---------------------------------------------------------------------------*/
FoamFile
{
    version     2.0;
    format      ascii;
    class       volVectorField;
    location    "200";
    object      U;
}
// * * * * * * * * * * * * * * * * * * * * * * * * * * * * * * * * * * * * * //

dimensions      [0 1 -1 0 0 0 0];

internalField   nonuniform List<vector> 
459
(
(-0.0446297 0.0658033 0)
(-0.160382 -0.0160575 0)
(-0.108905 -0.0224237 0)
(-0.101659 0.00794708 0)
(-0.108208 0.014099 0)
(-0.128803 0.00311007 0)
(-0.140707 -0.00744457 0)
(-0.134731 -0.0128042 0)
(-0.12029 -0.0167362 0)
(-0.101215 -0.0166174 0)
(-0.0821541 -0.0147216 0)
(-0.0640396 -0.0131866 0)
(-0.0460826 -0.0132183 0)
(-0.0335714 -0.0160381 0)
(-0.0528535 -0.0204032 0)
(0.00782418 0.0164101 0)
(-0.0452901 -0.00511721 0)
(-0.0388092 -0.00523308 0)
(-0.0353176 -0.00273722 0)
(-0.0337734 -0.00177726 0)
(-0.0347411 -0.00268175 0)
(-0.0355758 -0.00493974 0)
(-0.0323378 -0.00630444 0)
(-0.0280598 -0.00716502 0)
(-0.0217926 -0.00889678 0)
(-0.0123702 -0.0118417 0)
(-0.000321187 -0.014874 0)
(0.0105774 -0.012226 0)
(0.0184984 -0.0084522 0)
(0.0236406 -0.00606955 0)
(0.0282153 -0.00705083 0)
(0.0335222 -0.00971828 0)
(0.0439588 -0.00393344 0)
(-0.0104741 0.0182224 0)
(0.23568 0.215572 0)
(0.0555519 -0.0691727 0)
(0.106889 -0.0626921 0)
(0.100786 -0.00394359 0)
(0.0812033 0.0437217 0)
(0.0325737 0.0557585 0)
(-0.046282 0.0211441 0)
(-0.0920476 -0.0106707 0)
(-0.101076 -0.0258285 0)
(-0.0928257 -0.0287457 0)
(-0.081856 -0.0264523 0)
(-0.0699611 -0.0244875 0)
(-0.0564998 -0.0246819 0)
(-0.0421254 -0.0278959 0)
(-0.0294951 -0.03323 0)
(-0.0144886 -0.0349078 0)
(0.0182345 0.000790971 0)
(0.110794 0.034713 0)
(0.0186535 0.0138399 0)
(0.0055978 0.00309488 0)
(0.00481193 -0.000968216 0)
(0.00728695 -0.000880151 0)
(0.00929122 0.00518337 0)
(0.00645739 0.00829417 0)
(-0.00487386 -0.00114053 0)
(-0.00844124 -0.00546254 0)
(-0.00815316 -0.00834874 0)
(-0.0043355 -0.0127809 0)
(-0.00308694 -0.0164037 0)
(-0.0052178 -0.0101375 0)
(-0.00311683 -0.00358448 0)
(-0.00342391 -0.00520669 0)
(-0.00080736 -0.0136245 0)
(0.00213828 -0.0192567 0)
(0.0286508 -0.00587829 0)
(-0.0773292 0.0428003 0)
(0.527139 0.133339 0)
(0.328164 -0.0426925 0)
(0.329381 -0.0283188 0)
(0.335241 0.0459111 0)
(0.280055 0.104013 0)
(0.200052 0.128078 0)
(0.113378 0.115632 0)
(0.0268296 0.0723119 0)
(-0.0566594 -0.00679149 0)
(-0.0734841 -0.0293987 0)
(-0.0760522 -0.0316737 0)
(-0.0745018 -0.0320503 0)
(-0.0703202 -0.0344528 0)
(-0.0643842 -0.0388797 0)
(-0.0578329 -0.0427879 0)
(-0.0519589 -0.0413689 0)
(-0.0506797 -0.033039 0)
(0.127462 0.0212465 0)
(-0.0323043 0.0124687 0)
(-0.0192662 0.0075182 0)
(-0.0168893 -0.000452827 0)
(-0.0140538 -0.0069819 0)
(-0.0114781 -0.0121375 0)
(0.0233859 0.00200233 0)
(0.0261264 0.000762915 0)
(0.0229077 -0.00147581 0)
(0.0168286 -0.00457469 0)
(0.0099696 -0.00971237 0)
(-0.0113195 -0.0148951 0)
(-0.0263501 -0.00959561 0)
(-0.0322471 -0.00671557 0)
(-0.0336465 -0.00699834 0)
(-0.0249574 -0.00858269 0)
(-0.0378094 0.000772935 0)
(-0.0669717 0.0168138 0)
(-0.148166 0.0336989 0)
(0.67967 -0.351556 0)
(0.307246 -0.263215 0)
(0.343364 -0.117498 0)
(0.357581 0.0293787 0)
(0.305532 0.13908 0)
(0.22932 0.191782 0)
(0.149899 0.191368 0)
(0.0721592 0.149965 0)
(-0.00286736 0.068297 0)
(-0.0502702 -0.0063213 0)
(-0.0671602 -0.0236404 0)
(-0.0761249 -0.0288892 0)
(-0.0816126 -0.0333281 0)
(-0.0858182 -0.0378059 0)
(-0.0904459 -0.0397782 0)
(-0.0972717 -0.034096 0)
(-0.105883 -0.0126068 0)
(-0.100727 0.0331255 0)
(-0.0650984 0.0153564 0)
(-0.074428 0.0153636 0)
(-0.062821 0.0057746 0)
(-0.0614053 -0.00309416 0)
(-0.0622511 -0.0105871 0)
(-0.0656867 -0.0153515 0)
(-0.063201 -0.0110013 0)
(-0.0517235 -0.0106097 0)
(-0.0405361 -0.0111245 0)
(-0.0292719 -0.0115494 0)
(-0.0181897 -0.0117158 0)
(-0.00785656 -0.0115412 0)
(0.00265477 -0.0107206 0)
(0.0116778 -0.00943983 0)
(0.0209762 -0.00785441 0)
(0.0199041 -0.00897317 0)
(0.0247287 -0.00115067 0)
(0.0330544 0.00289598 0)
(-0.0713416 0.00561884 0)
(0.659395 -0.524182 0)
(0.064242 -0.283445 0)
(0.173395 -0.0463074 0)
(0.222243 0.111146 0)
(0.19838 0.208529 0)
(0.152413 0.257185 0)
(0.103019 0.255652 0)
(0.0526577 0.209395 0)
(0.00182435 0.11957 0)
(-0.034242 0.0300052 0)
(-0.0564294 -0.00572842 0)
(-0.0703367 -0.0186539 0)
(-0.0796202 -0.0261039 0)
(-0.0873473 -0.0320486 0)
(-0.0948058 -0.0362736 0)
(-0.101925 -0.0371542 0)
(-0.106466 -0.0318111 0)
(-0.106488 -0.0171895 0)
(-0.0988496 -0.00186497 0)
(-0.0886633 0.00493038 0)
(-0.078574 0.000831825 0)
(-0.07295 -0.00496883 0)
(-0.0697622 -0.0106396 0)
(-0.0676969 -0.0142703 0)
(-0.0637471 -0.0142162 0)
(-0.057327 -0.0150198 0)
(-0.0501812 -0.0157562 0)
(-0.0428854 -0.0160909 0)
(-0.035842 -0.0158082 0)
(-0.0293973 -0.014921 0)
(-0.0235201 -0.0135481 0)
(-0.0178611 -0.012205 0)
(-0.0116105 -0.0116361 0)
(-0.00438743 -0.0134225 0)
(0.0109791 -0.0126161 0)
(0.0404743 -0.00889532 0)
(0.0616311 -0.00277258 0)
(0.108685 -0.0111575 0)
(0.133428 0.0109632 0)
(-0.0389215 0.0648621 0)
(0.614865 -0.607994 0)
(-0.139171 -0.305994 0)
(0.0756709 -0.0374042 0)
(0.102633 0.124949 0)
(0.0788595 0.232021 0)
(0.0568994 0.289416 0)
(0.0362802 0.291823 0)
(0.0141408 0.244131 0)
(-0.010906 0.147672 0)
(-0.0290561 0.056569 0)
(-0.0452906 0.0131529 0)
(-0.0582272 -0.0068623 0)
(-0.0667759 -0.0172672 0)
(-0.0738328 -0.0239183 0)
(-0.0803696 -0.0277459 0)
(-0.0862374 -0.0280178 0)
(-0.0899506 -0.0241219 0)
(-0.0900585 -0.0172231 0)
(-0.0859421 -0.00961356 0)
(-0.0789949 -0.00550333 0)
(-0.0720398 -0.0064102 0)
(-0.0671526 -0.00973873 0)
(-0.0641714 -0.0137798 0)
(-0.0622476 -0.0169331 0)
(-0.060086 -0.0185773 0)
(-0.0573274 -0.0199239 0)
(-0.0544708 -0.0207864 0)
(-0.0519483 -0.0208386 0)
(-0.0501748 -0.0199197 0)
(-0.0494451 -0.0182229 0)
(-0.0497241 -0.0163124 0)
(-0.0505839 -0.0151138 0)
(-0.051298 -0.0158588 0)
(-0.0505444 -0.0197479 0)
(-0.0445947 -0.0265843 0)
(-0.0300185 -0.0376528 0)
(-0.00940641 -0.0562222 0)
(0.01917 -0.0655845 0)
(0.105215 0.00469473 0)
(-0.0714816 0.122422 0)
(0.507734 -0.587962 0)
(-0.213719 -0.324721 0)
(0.0269578 -0.0708923 0)
(-0.00681207 0.155822 0)
(-0.0346607 0.238173 0)
(-0.0283534 0.293746 0)
(-0.0217212 0.298882 0)
(-0.0187009 0.252378 0)
(-0.0213838 0.159425 0)
(-0.0249675 0.0719966 0)
(-0.0326745 0.0253196 0)
(-0.040413 0.00225396 0)
(-0.0466446 -0.0105965 0)
(-0.0516791 -0.018368 0)
(-0.0564418 -0.022897 0)
(-0.0606822 -0.0241859 0)
(-0.0635137 -0.022203 0)
(-0.0639572 -0.0180599 0)
(-0.0617399 -0.0135361 0)
(-0.0577666 -0.0108901 0)
(-0.0537135 -0.0109586 0)
(-0.0508415 -0.0127894 0)
(-0.0493939 -0.0153857 0)
(-0.0490428 -0.0177782 0)
(-0.0492422 -0.0195156 0)
(-0.0498593 -0.0206693 0)
(-0.0512073 -0.0209312 0)
(-0.0537639 -0.0199596 0)
(-0.0581581 -0.0177093 0)
(-0.0649438 -0.0147375 0)
(-0.0743289 -0.012047 0)
(-0.0858619 -0.0106299 0)
(-0.0985603 -0.0116674 0)
(-0.111418 -0.0170158 0)
(-0.123124 -0.0289524 0)
(-0.131835 -0.049414 0)
(-0.133725 -0.0751734 0)
(-0.119367 -0.0854752 0)
(-0.0709516 -0.0262674 0)
(-0.152243 0.223248 0)
(0.313373 -0.468551 0)
(-0.281754 -0.269724 0)
(-0.182869 -0.0799067 0)
(-0.106208 0.170222 0)
(-0.133611 0.218977 0)
(-0.0934946 0.269395 0)
(-0.0609353 0.279776 0)
(-0.0366707 0.240013 0)
(-0.0215128 0.155954 0)
(-0.0125813 0.0759701 0)
(-0.0122045 0.0305167 0)
(-0.015121 0.00692385 0)
(-0.0185059 -0.00652091 0)
(-0.0213559 -0.0146087 0)
(-0.0244782 -0.0193181 0)
(-0.0275291 -0.0212215 0)
(-0.0298922 -0.0206184 0)
(-0.0309008 -0.0183046 0)
(-0.030338 -0.0155447 0)
(-0.0287093 -0.0136369 0)
(-0.0269974 -0.0131809 0)
(-0.0260312 -0.0138994 0)
(-0.0261391 -0.015269 0)
(-0.0272726 -0.0166855 0)
(-0.0292302 -0.01769 0)
(-0.0319821 -0.0179055 0)
(-0.0357597 -0.0167366 0)
(-0.041037 -0.0135431 0)
(-0.0486193 -0.00797309 0)
(-0.0591738 -0.000380775 0)
(-0.0740035 0.0077233 0)
(-0.0951662 0.0134826 0)
(-0.123077 0.0135731 0)
(-0.156836 0.00552015 0)
(-0.194512 -0.0109937 0)
(-0.232118 -0.0330727 0)
(-0.2628 -0.0543754 0)
(-0.289962 -0.0657881 0)
(-0.353457 -0.0521238 0)
(-0.587882 0.0105746 0)
(0.0291774 -0.313026 0)
(-0.588512 -0.228298 0)
(-0.744679 -0.169385 0)
(-0.181666 0.0902674 0)
(-0.214485 0.162089 0)
(-0.132588 0.219521 0)
(-0.0777014 0.239845 0)
(-0.0362191 0.211023 0)
(-0.00537597 0.138147 0)
(0.0146809 0.069305 0)
(0.0211168 0.0306555 0)
(0.0216317 0.00901259 0)
(0.0202686 -0.00390474 0)
(0.018568 -0.0117259 0)
(0.0161671 -0.0161384 0)
(0.0133696 -0.0180922 0)
(0.0106619 -0.0181504 0)
(0.00857765 -0.01692 0)
(0.00738518 -0.0151963 0)
(0.00688504 -0.0137611 0)
(0.00652826 -0.0130419 0)
(0.00577471 -0.0130218 0)
(0.00432068 -0.0134725 0)
(0.00210252 -0.0140499 0)
(-0.000813188 -0.0143803 0)
(-0.00422837 -0.0139788 0)
(-0.00793644 -0.0121797 0)
(-0.0116947 -0.00826865 0)
(-0.0152104 -0.00173893 0)
(-0.0178492 0.00748882 0)
(-0.0211312 0.0185924 0)
(-0.0251538 0.0295937 0)
(-0.0302963 0.0373553 0)
(-0.0364478 0.0387671 0)
(-0.0433643 0.0312035 0)
(-0.0546301 0.0125024 0)
(-0.0725726 -0.0185281 0)
(-0.0658644 -0.0660639 0)
(-0.091122 -0.151209 0)
(-0.524324 -0.250653 0)
(-1.70013 -0.206263 0)
(-0.0657272 -0.102054 0)
(-0.218288 0.06037 0)
(-0.131415 0.149277 0)
(-0.0688227 0.183519 0)
(-0.0144104 0.166778 0)
(0.0309994 0.105483 0)
(0.0572638 0.0565932 0)
(0.068719 0.0270817 0)
(0.0721033 0.00962504 0)
(0.0718635 -0.00135779 0)
(0.0698181 -0.00845897 0)
(0.0666084 -0.0125476 0)
(0.0627086 -0.0144467 0)
(0.0586113 -0.0148338 0)
(0.0547724 -0.0142736 0)
(0.0514672 -0.0132801 0)
(0.0486859 -0.0122921 0)
(0.046177 -0.0115793 0)
(0.0436191 -0.0112077 0)
(0.0407657 -0.0111026 0)
(0.0374993 -0.0110926 0)
(0.0338366 -0.0109455 0)
(0.029945 -0.0103241 0)
(0.0261836 -0.00873061 0)
(0.0231463 -0.00559487 0)
(0.0216899 -0.000462098 0)
(0.022422 0.00698629 0)
(0.0256435 0.0164618 0)
(0.0313085 0.0259715 0)
(0.0385849 0.0323925 0)
(0.0463024 0.0328315 0)
(0.0533774 0.0263093 0)
(0.0588725 0.0149226 0)
(0.0656909 0.00294864 0)
(0.0764086 -0.0114053 0)
(0.137745 -0.0719118 0)
(-0.159685 -0.194336 0)
(-0.499776 0.0532868 0)
(0.0594762 -0.12093 0)
(-0.140706 -0.0208971 0)
(-0.100668 0.0747607 0)
(-0.041238 0.1174 0)
(0.0306344 0.105941 0)
(0.0814942 0.0632069 0)
(0.113341 0.0295992 0)
(0.128984 0.00748743 0)
(0.134469 -0.00689167 0)
(0.134369 -0.0160913 0)
(0.130946 -0.0212439 0)
(0.125761 -0.0238043 0)
(0.119697 -0.0247151 0)
(0.113394 -0.0246357 0)
(0.107314 -0.0240171 0)
(0.101711 -0.0231657 0)
(0.0966329 -0.0222787 0)
(0.091961 -0.0214482 0)
(0.0875072 -0.0206722 0)
(0.0830973 -0.0198874 0)
(0.0786224 -0.0189925 0)
(0.0740663 -0.0178611 0)
(0.0695415 -0.0163257 0)
(0.0653609 -0.0141534 0)
(0.0621355 -0.011053 0)
(0.0609028 -0.00672381 0)
(0.0622904 -0.000594562 0)
(0.0673881 0.0069693 0)
(0.0764095 0.0145354 0)
(0.0884129 0.0198171 0)
(0.101415 0.0206766 0)
(0.112908 0.0162302 0)
(0.120533 0.00671777 0)
(0.122038 -0.00743851 0)
(0.114982 -0.02747 0)
(0.151684 -0.0678165 0)
(-0.206668 -0.133691 0)
(0.260265 -0.119721 0)
(-0.177039 -0.0514124 0)
(-0.211937 0.13986 0)
(0.0165228 0.00334549 0)
(-0.112023 0.0547355 0)
(-0.0765279 0.0807648 0)
(-0.00382174 0.102958 0)
(0.0821502 0.0913119 0)
(0.139255 0.0721899 0)
(0.17627 0.058702 0)
(0.195221 0.0509644 0)
(0.201985 0.047145 0)
(0.201669 0.0452777 0)
(0.197324 0.0439065 0)
(0.191053 0.0429493 0)
(0.183826 0.0423405 0)
(0.176265 0.0419647 0)
(0.168806 0.0416896 0)
(0.1617 0.0413886 0)
(0.15503 0.0409495 0)
(0.148764 0.0402808 0)
(0.142828 0.0393112 0)
(0.137156 0.0379812 0)
(0.131726 0.036231 0)
(0.126572 0.0339889 0)
(0.121801 0.0311715 0)
(0.117616 0.0277116 0)
(0.114362 0.0236343 0)
(0.112749 0.0191316 0)
(0.113237 0.0142347 0)
(0.116967 0.00984665 0)
(0.124788 0.00672713 0)
(0.136313 0.00452489 0)
(0.149568 0.00199019 0)
(0.161374 -0.00204666 0)
(0.168486 -0.00825237 0)
(0.166441 -0.0165438 0)
(0.151534 -0.0275177 0)
(0.172818 -0.0458102 0)
(-0.238726 -0.0814387 0)
)
;

boundaryField
{
    floor
    {
        type            noSlip;
    }
    ceiling
    {
        type            noSlip;
    }
    sWall
    {
        type            noSlip;
    }
    nWall
    {
        type            noSlip;
    }
    sideWalls
    {
        type            empty;
    }
    glass1
    {
        type            noSlip;
    }
    glass2
    {
        type            noSlip;
    }
    sun
    {
        type            noSlip;
    }
    heatsource1
    {
        type            noSlip;
    }
    heatsource2
    {
        type            noSlip;
    }
    Table_master
    {
        type            noSlip;
    }
    Table_slave
    {
        type            noSlip;
    }
    inlet
    {
        type            fixedValue;
        value           uniform (0.1 0 0);
    }
    outlet
    {
        type            zeroGradient;
    }
}


// ************************************************************************* //
