// -*- C++ -*-
// File generated by PyFoam - sorry for the ugliness

FoamFile
{
 version 2.0;
 format ascii;
 class volScalarField;
 location "1900";
 object T;
}

dimensions [ 0 0 0 1 0 0 0 ];

internalField nonuniform List<scalar> 459
(
  302.659
  302.379
  302.364
  302.36
  302.356
  302.351
  302.347
  302.341
  302.332
  302.322
  302.311
  302.303
  302.299
  302.301
  302.309
  302.441
  302.415
  302.405
  302.409
  302.414
  302.419
  302.425
  302.43
  302.435
  302.44
  302.445
  302.449
  302.454
  302.459
  302.464
  302.469
  302.474
  302.481
  302.506
  302.845
  302.42
  302.392
  302.392
  302.394
  302.394
  302.39
  302.382
  302.365
  302.343
  302.319
  302.3
  302.288
  302.284
  302.285
  302.284
  302.28
  302.444
  302.396
  302.389
  302.392
  302.399
  302.405
  302.407
  302.409
  302.411
  302.413
  302.414
  302.415
  302.417
  302.419
  302.422
  302.427
  302.434
  302.446
  302.487
  303.04
  302.473
  302.426
  302.434
  302.446
  302.455
  302.457
  302.448
  302.42
  302.38
  302.338
  302.304
  302.284
  302.277
  302.28
  302.284
  302.286
  302.374
  302.37
  302.379
  302.392
  302.406
  302.416
  302.416
  302.415
  302.415
  302.415
  302.415
  302.415
  302.415
  302.415
  302.416
  302.419
  302.424
  302.435
  302.479
  303.237
  302.54
  302.464
  302.477
  302.504
  302.529
  302.544
  302.533
  302.488
  302.422
  302.357
  302.307
  302.278
  302.271
  302.277
  302.287
  302.296
  302.313
  302.333
  302.36
  302.387
  302.413
  302.434
  302.451
  302.464
  302.476
  302.487
  302.496
  302.504
  302.509
  302.514
  302.518
  302.519
  302.485
  302.458
  302.446
  302.481
  303.429
  302.627
  302.512
  302.52
  302.559
  302.603
  302.635
  302.617
  302.549
  302.452
  302.365
  302.303
  302.27
  302.263
  302.275
  302.295
  302.316
  302.34
  302.368
  302.4
  302.432
  302.461
  302.485
  302.505
  302.523
  302.537
  302.549
  302.559
  302.565
  302.567
  302.565
  302.56
  302.551
  302.526
  302.49
  302.463
  302.479
  302.579
  302.622
  302.629
  303.602
  302.74
  302.597
  302.585
  302.625
  302.685
  302.712
  302.666
  302.57
  302.456
  302.353
  302.283
  302.251
  302.252
  302.276
  302.31
  302.346
  302.382
  302.419
  302.456
  302.491
  302.521
  302.545
  302.565
  302.581
  302.594
  302.604
  302.611
  302.615
  302.613
  302.606
  302.595
  302.579
  302.555
  302.52
  302.486
  302.482
  302.524
  302.543
  302.584
  303.765
  302.921
  302.783
  302.758
  302.774
  302.81
  302.773
  302.671
  302.535
  302.4
  302.294
  302.234
  302.219
  302.241
  302.287
  302.342
  302.395
  302.444
  302.488
  302.526
  302.559
  302.586
  302.607
  302.624
  302.637
  302.646
  302.653
  302.657
  302.657
  302.652
  302.64
  302.624
  302.606
  302.581
  302.55
  302.517
  302.502
  302.513
  302.526
  302.56
  303.998
  303.371
  303.222
  303.141
  303.073
  302.946
  302.765
  302.564
  302.381
  302.244
  302.167
  302.151
  302.183
  302.245
  302.325
  302.405
  302.473
  302.528
  302.57
  302.602
  302.628
  302.648
  302.664
  302.675
  302.684
  302.689
  302.692
  302.692
  302.689
  302.683
  302.672
  302.656
  302.637
  302.616
  302.592
  302.569
  302.561
  302.579
  302.606
  302.762
  304.334
  304.037
  303.74
  303.429
  303.062
  302.659
  302.321
  302.085
  301.96
  301.933
  301.981
  302.078
  302.191
  302.307
  302.422
  302.515
  302.574
  302.615
  302.645
  302.669
  302.687
  302.7
  302.71
  302.717
  302.721
  302.723
  302.722
  302.721
  302.718
  302.715
  302.712
  302.713
  302.715
  302.723
  302.741
  302.769
  302.809
  302.849
  302.877
  302.948
  293.37
  295.284
  297.24
  298.701
  299.762
  300.561
  301.17
  301.627
  301.967
  302.229
  302.386
  302.493
  302.571
  302.626
  302.663
  302.689
  302.708
  302.723
  302.733
  302.741
  302.746
  302.749
  302.751
  302.752
  302.752
  302.753
  302.753
  302.754
  302.756
  302.758
  302.763
  302.773
  302.788
  302.811
  302.837
  302.862
  302.883
  302.932
  294.555
  296.998
  299.18
  300.288
  300.99
  301.484
  301.84
  302.109
  302.313
  302.463
  302.562
  302.629
  302.675
  302.706
  302.728
  302.743
  302.754
  302.761
  302.766
  302.77
  302.772
  302.773
  302.774
  302.775
  302.776
  302.776
  302.777
  302.779
  302.78
  302.782
  302.786
  302.793
  302.804
  302.818
  302.836
  302.855
  302.88
  302.907
  298.268
  298.192
  298.186
  300.5
  301.426
  301.824
  302.068
  302.254
  302.4
  302.514
  302.602
  302.667
  302.712
  302.744
  302.765
  302.78
  302.79
  302.797
  302.801
  302.804
  302.805
  302.806
  302.806
  302.805
  302.805
  302.804
  302.803
  302.802
  302.802
  302.801
  302.801
  302.801
  302.802
  302.805
  302.81
  302.82
  302.83
  302.838
  302.899
  303.003
)
;

boundaryField
{
  floor
  {
    type wallHeatTransfer;
    Tinf uniform 305.2;
    alphaWall uniform 0.24;
    value nonuniform List<scalar> 29
(
  302.585
  302.938
  302.856
  302.813
  302.817
  302.832
  302.85
  302.875
  302.901
  302.926
  302.952
  302.976
  302.999
  303.022
  303.044
  303.065
  303.087
  303.111
  303.129
  303.181
  303.181
  303.057
  302.995
  302.963
  302.585
  302.938
  302.92
  302.678
  302.545
)
;
  }
  ceiling
  {
    type wallHeatTransfer;
    Tinf uniform 303.2;
    alphaWall uniform 0.24;
    value nonuniform List<scalar> 43
(
  298.59
  298.503
  298.488
  300.654
  301.53
  301.908
  302.139
  302.316
  302.455
  302.565
  302.65
  302.715
  302.761
  302.794
  302.817
  302.833
  302.844
  302.852
  302.858
  302.861
  302.863
  302.864
  302.864
  302.863
  302.862
  302.86
  302.858
  302.856
  302.854
  302.852
  302.85
  302.848
  302.847
  302.847
  302.849
  302.856
  302.865
  302.875
  302.932
  303.022
  304.283
  304.004
  295.067
)
;
  }
  sWall
  {
    type wallHeatTransfer;
    Tinf uniform 315.2;
    alphaWall uniform 0.36;
    value uniform 299.879;
  }
  nWall
  {
    type wallHeatTransfer;
    Tinf uniform 307.2;
    alphaWall uniform 0.36;
    value nonuniform List<scalar> 6
(
  303.437
  303.373
  303.281
  303.529
  303.494
  303.592
)
;
  }
  sideWalls
  {
    type empty;
  }
  glass1
  {
    type wallHeatTransfer;
    Tinf uniform 315.2;
    alphaWall uniform 4.3;
    value nonuniform List<scalar> 9
(
  311.11
  310.423
  309.995
  309.674
  309.408
  309.169
  309.001
  309.088
  309.341
)
;
  }
  glass2
  {
    type wallHeatTransfer;
    Tinf uniform 307.2;
    alphaWall uniform 4.3;
    value nonuniform List<scalar> 2
(
  305.465
  305.603
)
;
  }
  sun
  {
    type wallHeatTransfer;
    Tinf uniform 305.2;
    alphaWall uniform 0.24;
    value nonuniform List<scalar> 14
(
  302.917
  302.645
  302.628
  302.614
  302.602
  302.591
  302.58
  302.568
  302.556
  302.545
  302.538
  302.536
  302.542
  302.558
)
;
  }
  heatsource1
  {
    type fixedGradient;
    gradient uniform 0;
  }
  heatsource2
  {
    type fixedGradient;
    gradient uniform 0;
  }
  Table_master
  {
    type zeroGradient;
  }
  Table_slave
  {
    type zeroGradient;
  }
  inlet
  {
    type fixedValue;
    value uniform 290.15;
  }
  outlet
  {
    type zeroGradient;
  }
} 	// ************************************************************************* //

