/*--------------------------------*- C++ -*----------------------------------*\
  =========                 |
  \\      /  F ield         | OpenFOAM: The Open Source CFD Toolbox
   \\    /   O peration     | Website:  https://openfoam.org
    \\  /    A nd           | Version:  6
     \\/     M anipulation  |
\*---------------------------------------------------------------------------*/
FoamFile
{
    version     2.0;
    format      ascii;
    class       volScalarField;
    location    "1700";
    object      alphat;
}
// * * * * * * * * * * * * * * * * * * * * * * * * * * * * * * * * * * * * * //

dimensions      [1 -1 -1 0 0 0 0];

internalField   nonuniform List<scalar> 
459
(
0.00132347
0.00145093
0.00147915
0.00155226
0.00162079
0.00168578
0.0017506
0.00181009
0.00185002
0.00186363
0.00184505
0.00179072
0.00169959
0.00157711
0.00143886
0.000598843
0.000723946
0.000814139
0.000811799
0.000784705
0.000748324
0.000701902
0.000655751
0.000613877
0.000576724
0.000543841
0.000514643
0.000488695
0.000465408
0.00044396
0.000423309
0.000401999
0.000388719
0.000356243
0.00180034
0.0045202
0.00437478
0.00510862
0.00583154
0.00654336
0.00714643
0.00761978
0.00803671
0.00836419
0.00855982
0.00857971
0.00835673
0.00771817
0.0059644
0.00147873
0.000853505
0.000636953
0.00133743
0.00186491
0.00225105
0.00245852
0.00245008
0.00195516
0.00168357
0.00149056
0.00134281
0.00122546
0.00112991
0.00104725
0.000969978
0.000894719
0.000827713
0.000768021
0.000912235
0.000472654
0.00219302
0.00617724
0.00546293
0.00684281
0.00754376
0.00806564
0.00846917
0.00880934
0.00916803
0.0095291
0.00984582
0.0100641
0.0101213
0.00991199
0.00913727
0.00692203
0.00151372
0.001235
0.00180331
0.00233424
0.00281889
0.00315029
0.00306391
0.000996772
0.000879586
0.000785326
0.000709282
0.000647377
0.000596456
0.000554254
0.000519329
0.000491113
0.000530774
0.000613947
0.00103307
0.000551918
0.00256636
0.00785166
0.00552143
0.00725109
0.00786049
0.00808797
0.00825297
0.0084597
0.00876848
0.00915914
0.00956929
0.00993263
0.0101768
0.0102136
0.00997593
0.0091148
0.00623286
0.00178625
0.00222657
0.00289404
0.00355244
0.00407735
0.00439225
0.00410152
0.00112046
0.00102016
0.00094836
0.000893136
0.000845536
0.000802109
0.000760292
0.000716497
0.000665899
0.000624351
0.000642954
0.00120849
0.000610679
0.00294462
0.00997576
0.006107
0.00704142
0.00780717
0.00788711
0.00785886
0.00801013
0.00829264
0.00870869
0.0091755
0.00960435
0.00988965
0.00996787
0.00983201
0.00944383
0.00857776
0.00712084
0.0066194
0.00646225
0.00641071
0.00636692
0.00627533
0.00599841
0.0050235
0.00455533
0.00427927
0.00406308
0.00383708
0.00351408
0.00309314
0.00259609
0.00205507
0.00152034
0.00112398
0.00118337
0.000798126
0.000744694
0.000889638
0.00099595
0.00334375
0.0122773
0.00835101
0.00717302
0.00772934
0.00786834
0.00780522
0.00790277
0.00812566
0.00850992
0.00900822
0.00948781
0.00979854
0.00984766
0.00964675
0.00929729
0.00891225
0.00855243
0.00834965
0.00817231
0.00794755
0.00768121
0.00738249
0.00702833
0.00655308
0.00614498
0.00579599
0.00547225
0.00515094
0.00480093
0.00435882
0.00380833
0.00315393
0.00244142
0.0018226
0.00135728
0.00106503
0.000940859
0.00136401
0.00104432
0.00369764
0.0138347
0.011485
0.00921466
0.00882871
0.00851201
0.00817612
0.00804218
0.008186
0.00859709
0.00916492
0.00970069
0.0100134
0.00999673
0.00968757
0.0092736
0.00899979
0.00895093
0.00894906
0.00879194
0.00845889
0.00801728
0.00751996
0.0070006
0.00649274
0.00605468
0.00567714
0.00533973
0.00503555
0.00476788
0.00453216
0.00415256
0.00362221
0.00298995
0.00240021
0.00187166
0.00152615
0.00145739
0.00153128
0.0012005
0.00375595
0.0120533
0.0108942
0.0100776
0.00929171
0.00850847
0.00802778
0.00797392
0.00833115
0.00897973
0.0097141
0.0102887
0.0105095
0.0103151
0.00981872
0.00931607
0.0091013
0.00912656
0.00899825
0.00858684
0.00798471
0.00729549
0.0066073
0.00599361
0.0054949
0.0051061
0.00479505
0.00454223
0.00434536
0.00421151
0.00414766
0.00410267
0.00378423
0.00336122
0.00300325
0.00285135
0.0030495
0.003716
0.00469116
0.00185472
0.00364563
0.00430224
0.00474288
0.00485497
0.00511077
0.00567289
0.00655802
0.00770342
0.00895741
0.0101115
0.0109455
0.0112774
0.0110613
0.0104294
0.00969246
0.00923425
0.00894191
0.00861682
0.0080829
0.00734537
0.00651974
0.00573212
0.00507312
0.00457158
0.00420326
0.00392398
0.00369787
0.00350498
0.00333425
0.00317743
0.00302777
0.00289088
0.00278259
0.00271273
0.00270377
0.00274064
0.00273998
0.00262713
0.00244269
0.00170692
0.00173126
0.00438161
0.00790872
0.0101921
0.0116938
0.0126098
0.0129886
0.0129105
0.0124649
0.0117447
0.0107362
0.00969777
0.00888642
0.00831173
0.00773575
0.00703602
0.00623959
0.00543248
0.00470093
0.0041201
0.00370067
0.00340579
0.00319242
0.00302951
0.00289983
0.00279596
0.0027162
0.00266268
0.0026414
0.00264965
0.00267448
0.00271262
0.00275134
0.00275436
0.00266683
0.00246931
0.00217527
0.00137641
0.00261606
0.0080433
0.011028
0.0117953
0.0120239
0.0118432
0.0112843
0.0104842
0.00957534
0.0086806
0.00783632
0.00711855
0.00651545
0.00591401
0.00526715
0.00462497
0.00404482
0.00356184
0.00318606
0.00290264
0.00270247
0.00256452
0.00247315
0.00241955
0.00239864
0.00240584
0.00243491
0.00248053
0.00255167
0.00264282
0.00274971
0.00286383
0.00296626
0.00303976
0.00302817
0.00303406
0.00274612
0.00139339
0.00231466
0.00245579
0.00255714
0.00273731
0.0026227
0.00251979
0.00243593
0.00231545
0.00215336
0.00195908
0.00174275
0.0015229
0.0013256
0.0011669
0.00104742
0.000959574
0.000895205
0.000848577
0.000816469
0.000797044
0.000788801
0.000789888
0.000797537
0.000810768
0.000829031
0.000852112
0.000880073
0.000913277
0.000952551
0.000998971
0.00105186
0.00111178
0.00117923
0.0012548
0.00133853
0.00144956
0.00148157
0.00144529
0.00134845
0.00124419
)
;

boundaryField
{
    floor
    {
        type            compressible::alphatWallFunction;
        Prt             0.85;
        value           nonuniform List<scalar> 
29
(
0.000202706
8.41685e-05
0.000102677
0.000115778
0.00011544
0.000111523
0.000106236
9.94455e-05
9.26404e-05
8.64154e-05
8.08486e-05
7.58847e-05
7.14456e-05
6.74744e-05
6.38877e-05
6.05642e-05
5.73449e-05
5.40017e-05
5.1907e-05
4.6745e-05
4.67444e-05
6.50071e-05
7.71088e-05
8.594e-05
0.000202704
8.41675e-05
8.98524e-05
0.000174936
0.000249055
)
;
    }
    ceiling
    {
        type            compressible::alphatWallFunction;
        Prt             0.85;
        value           nonuniform List<scalar> 
43
(
0.000317593
0.00033563
0.000348518
0.000371451
0.00035704
0.000344015
0.000333353
0.000317956
0.000297098
0.000271868
0.000243448
0.000214163
0.000187477
0.000165684
0.000149053
0.000136686
0.00012754
0.000120866
0.000116245
0.000113439
0.000112246
0.000112404
0.000113511
0.000115423
0.000118056
0.000121374
0.000125379
0.000130116
0.000135693
0.00014225
0.000149677
0.000158041
0.000167392
0.000177797
0.000189244
0.000204299
0.000208615
0.000203723
0.000190597
0.000176345
0.000484379
0.000563982
0.000355742
)
;
    }
    sWall
    {
        type            compressible::alphatWallFunction;
        Prt             0.85;
        value           uniform 0.000316321;
    }
    nWall
    {
        type            compressible::alphatWallFunction;
        Prt             0.85;
        value           nonuniform List<scalar> 6(0.000141475 0.000148265 0.000169962 0.000194049 0.000196351 0.000175999);
    }
    sideWalls
    {
        type            empty;
    }
    glass1
    {
        type            compressible::alphatWallFunction;
        Prt             0.85;
        value           nonuniform List<scalar> 9(0.000182314 0.000245301 0.000295928 0.000343257 0.000390541 0.0004398 0.00048302 0.000490247 0.000477098);
    }
    glass2
    {
        type            compressible::alphatWallFunction;
        Prt             0.85;
        value           nonuniform List<scalar> 2(0.000256114 0.000236789);
    }
    sun
    {
        type            compressible::alphatWallFunction;
        Prt             0.85;
        value           nonuniform List<scalar> 
14
(
0.000187065
0.000204338
0.000208142
0.000217962
0.000227119
0.000235763
0.000244349
0.000252198
0.00025745
0.000259237
0.000256796
0.000249643
0.000237593
0.000221284
)
;
    }
    heatsource1
    {
        type            compressible::alphatWallFunction;
        Prt             0.85;
        value           nonuniform List<scalar> 3(0.00010586 0.000126771 0.00014185);
    }
    heatsource2
    {
        type            compressible::alphatWallFunction;
        Prt             0.85;
        value           nonuniform List<scalar> 4(0.000208259 0.000121597 0.000121595 0.000212962);
    }
    Table_master
    {
        type            compressible::alphatWallFunction;
        Prt             0.85;
        value           nonuniform List<scalar> 9(0.000141961 0.000125331 0.000111764 0.000100677 9.15453e-05 8.39537e-05 7.76013e-05 7.22987e-05 6.79821e-05);
    }
    Table_slave
    {
        type            compressible::alphatWallFunction;
        Prt             0.85;
        value           nonuniform List<scalar> 9(0.000159271 0.000145255 0.000135123 0.00012727 0.000120454 0.000114196 0.000108132 0.000101738 9.42907e-05);
    }
    inlet
    {
        type            fixedValue;
        value           uniform 1.94e-05;
    }
    outlet
    {
        type            zeroGradient;
    }
}


// ************************************************************************* //
