/*--------------------------------*- C++ -*----------------------------------*=========                 |
  \      /  F ield         | OpenFOAM: The Open Source CFD Toolbox
   \    /   O peration     | Website:  https://openfoam.org
    \  /    A nd           | Version:  6
     \/     M anipulation  |
\*---------------------------------------------------------------------------*/
FoamFile
{
    version     2.0;
    format      ascii;
    class       volScalarField;
    location    "2400";
    object      PMV;
}
// * * * * * * * * * * * * * * * * * * * * * * * * * * * * * * * * * * * * * //

dimensions      [0 0 0 0 0 0 0];

internalField   nonuniform List<scalar> 
459
(
1.655969263863686
1.439650733250327
1.4134601979669017
1.3905212401102875
1.3750755449961187
1.3656900998163746
1.3630279543585735
1.366950004399242
1.3767490113792593
1.394053897636478
1.41929681017979
1.4550471840011991
1.5028257239182152
1.5388112717830156
1.5431107254161076
1.608062054196782
1.5951696370158337
1.589916786774404
1.5918269395575866
1.594214589706792
1.5970797096929203
1.5953069896888783
1.5912412163417324
1.590569911329582
1.591401646340217
1.5928071340381569
1.5946566716681727
1.597061117957112
1.6003756318056146
1.605601190658187
1.6149616358886814
1.6242949973163925
1.6276367973684602
1.6400483522632914
1.6182696811428001
1.4606720887819524
1.4525235070595568
1.431711265211508
1.41900239863764
1.4116205843162752
1.4098552352612534
1.4119058057221558
1.416524060300893
1.4249339162586259
1.4397040459119514
1.4638580288267837
1.4982119847414437
1.5302119736472972
1.5311674767229624
1.5311674767229624
1.5311674767229624
1.57212994610299
1.5856188375101559
1.5817983164143035
1.5832256903388253
1.5773291807986445
1.5728409613227965
1.5713116971873469
1.571834437535398
1.5734157534249573
1.5742026320265472
1.5743584052028161
1.5750612539069488
1.5759162705516472
1.5769847333709908
1.5795002468439627
1.5871636178392046
1.605674671725877
1.6114043107114289
1.6038741423139573
1.6602239896180093
1.46362259742559
1.4884243501382686
1.478477471152619
1.4759757008637395
1.475652118550173
1.4766605754560622
1.4775306271332938
1.4732773311870746
1.466321898068716
1.4625702391162543
1.468646754185839
1.4868905014146414
1.5179459601800347
1.5283009485191121
1.5306897259772587
1.5321229734546018
1.4807159320510832
1.521036062260931
1.5336347663070604
1.5425927534003205
1.552163243035621
1.5590140378433008
1.5624089875939549
1.5709667869729298
1.5766260730801818
1.5792111338630554
1.5803247466116424
1.5808734671308735
1.5813164959468164
1.5799225003212416
1.5760590092388205
1.5774329940621012
1.5953411997417881
1.5876083315076
1.5423069847766833
1.736181323813686
1.469719772875289
1.5162318782068638
1.526412453188322
1.543888968414455
1.5598913607674147
1.5718223706460352
1.5672182026031642
1.540841414723827
1.5044794935288577
1.473694626224933
1.4582659795929542
1.4611005901781227
1.482307436423925
1.5136506723275034
1.5316452258826245
1.5156808250200204
1.4752966550941704
1.4742623612953565
1.5018954336947157
1.5278164199023798
1.5490368724543755
1.5677180407858775
1.5813629732853443
1.5866919362664553
1.5851712182987374
1.5846323535533478
1.5852933950143786
1.586704732281142
1.5901078953157994
1.5968620765501365
1.6084993621289576
1.630763528805739
1.6246806564291183
1.6098911581403628
1.5679243519475556
1.4988697728762186
1.825449598512318
1.4904389522895929
1.5432625153481982
1.5723132164274403
1.6206292610825934
1.675180434190864
1.6987455343242963
1.6521934554211655
1.5802819418196057
1.5111797299053895
1.4621379526802996
1.434911665060304
1.4320141745385626
1.4489213762386541
1.4778316401576135
1.5044490963190553
1.5111040084151681
1.5077254153400832
1.516305325933129
1.5408439392106126
1.570398402099641
1.597265411645998
1.619721137838539
1.6368015681294068
1.646528557448083
1.6486779933275106
1.6492569832874489
1.648962978202384
1.6480263325036948
1.6460360944260035
1.6458775686219098
1.6468392890820513
1.648644417589374
1.635265652541372
1.608690171754783
1.5500744222191511
1.5440315294333984
1.6734572251482311
1.6603232610472884
1.4985859135369837
1.915522791983447
1.5328299261862302
1.596248407670304
1.6262574010758986
1.6949288310861308
1.7235505196295275
1.7108807267607533
1.6312652862393588
1.553608949092076
1.4827528610677774
1.4300693670930253
1.4031088843721433
1.4038462297690513
1.4272001546443962
1.4646778668433234
1.505245260135542
1.5358509573024643
1.5573618884438694
1.5811414316749668
1.611459095988915
1.6305011210811782
1.6452989878191286
1.6572313319902126
1.6662990448122048
1.6739344200252881
1.68013775655229
1.6844321583610788
1.687294993923284
1.6887263818382885
1.687294993923284
1.6839550113825918
1.6791834209774916
1.670695372166046
1.6454042354852412
1.6115683049811305
1.549851281394091
1.5474553705017873
1.56333613052
1.5625868339386777
1.5748606496533224
2.004776639876296
1.62845534950529
1.7477780897473423
1.7218712863679206
1.7179204783897917
1.6914611470375356
1.637888838675908
1.564911454094188
1.4859449056590897
1.4176083836732438
1.374183644870713
1.3624649823094348
1.3805245317826058
1.4224667524339956
1.4797546490702935
1.5417223570261227
1.5832310251886708
1.607107106830086
1.6285915797918784
1.6472082490337798
1.663435638622421
1.6763203620430491
1.6863407242374835
1.693974632744105
1.6996996875144088
1.7039932642200943
1.7063785045519904
1.7078096211525202
1.7073325845906697
1.7044703168759794
1.6987455343242963
1.691589097646586
1.6834778622046878
1.6717312926073788
1.6314518619679685
1.573999531394265
1.5517157895661822
1.541498885865566
1.5163994287216072
1.6007651153766846
2.1370508426138684
1.947134114917357
1.90298439003547
1.803553338864491
1.744282270954801
1.6618517439186749
1.5578822522528004
1.4507337086375283
1.3633966611527455
1.3093573916089636
1.2963081408563586
1.3228995031069932
1.3791902688386681
1.4560465528230153
1.5460614268402588
1.5880066050862434
1.6209531020008348
1.6472082490337798
1.6677307192933866
1.6834778622046878
1.69540592688489
1.7049473672393043
1.7121028460847754
1.7173498647677954
1.720688728640033
1.722596598802442
1.7235505196295275
1.7230735604057135
1.7211656997384903
1.717826852396239
1.71257985946733
1.7049473672393043
1.6968372007659525
1.687294993923284
1.6763203620430491
1.665344584546566
1.645451862967529
1.6340101099901887
1.5738047965563777
1.4899255908368398
2.334235894001431
2.2027314426476816
2.0372677372427117
1.8558944853697796
1.6476122978862167
1.4315795833773408
1.2618948620410446
1.1578787890084818
1.1245274348164507
1.1530179368706572
1.2285517898591105
1.335866476928917
1.4582639528157977
1.5416775888070509
1.596602194270964
1.6410030314367121
1.66916237462389
1.6887263818382885
1.7030391520395038
1.7140108856252154
1.722596598802442
1.7239798427045452
1.723136201393388
1.7217235229215373
1.7188601419384895
1.7154316665675866
1.7105621525514694
1.7040009418997275
1.6964160922744216
1.686812112369216
1.675284015259601
1.6631455523390208
1.6519153403516
1.6376524842885247
1.621540274503527
1.6077978287954782
1.598770770934922
1.593621348798561
1.5825442260007603
1.5527351872955213
-2.974378368634011
-1.8362016379799537
-1.1374951485680709
-0.38991886044021373
0.17098444950021052
0.6049575812849565
0.9567988518090593
1.2184527654114512
1.3810842816884845
1.5063223749654981
1.579888013206853
1.6309785014841816
1.6521075934318001
1.6681961764709512
1.6808954357732315
1.6893794303265837
1.6952305998471249
1.697902948690286
1.6987484838421616
1.6980998492915438
1.6960420227330653
1.6929163387433348
1.6890262455758176
1.6842282993703594
1.6789872405475859
1.6734271824962366
1.6678054653847227
1.6629573540746732
1.6592848970440652
1.65618367257442
1.6545326591249947
1.6535310686444853
1.652719800792669
1.654809217758401
1.665355460092765
1.7007066574657865
1.7718951245513122
1.6159612629319557
-2.4667380224133666
-0.9986547434195506
0.045022988811677836
0.5771289507536697
0.9011705675136876
1.104371984197195
1.2579654357710952
1.376517443921028
1.4684004806019637
1.5368010691535867
1.58292526468625
1.61525051409807
1.6382834182337005
1.6543310725375668
1.6656576950537099
1.6730119327322055
1.6773776043809703
1.6803812666473172
1.6818429944963031
1.6827318170673315
1.682846293630666
1.6821364365461016
1.6810846649214095
1.6797118691179316
1.6776065189981182
1.6759044214621952
1.674377340147943
1.6734889127111543
1.6738292890992188
1.6772942981782804
1.6842589317598886
1.6956594568363108
1.7076712945409873
1.717865648034003
1.7297544112645835
1.7680588309725946
1.7028827943683624
1.6543163715233142
-0.8557744326231469
-0.9946867942209087
-0.8743486733366215
0.37494415518655017
0.8883162894986562
1.1044724191818767
1.2370167453897556
1.3396342331474058
1.4225675935033748
1.4899231998893727
1.5437241022473798
1.5855467082329584
1.6154248975614491
1.6359179926546874
1.6489804890903597
1.6568565935395219
1.6606483812794088
1.6615934143507907
1.6618522159411486
1.6614311215478628
1.66112193489003
1.6609631310200879
1.6611355579961637
1.6616013776321965
1.661837122185083
1.6623741719866283
1.6633237680666917
1.665428389163641
1.6680717516665873
1.6727488174178462
1.679660628725175
1.6910692366798061
1.712299372366022
1.7502871053955849
1.7779076891515313
1.7841041926801995
1.7514722283401787
1.709728698402796
1.6682731082364524
1.6728777160042925
)
;

boundaryField
{
    ".*"
    {
        type            zeroGradient;
    }
}


// ************************************************************************* //
