// -*- C++ -*-
// File generated by PyFoam - sorry for the ugliness

FoamFile
{
 version 2.0;
 format ascii;
 class volScalarField;
 location "2100";
 object T;
}

dimensions [ 0 0 0 1 0 0 0 ];

internalField nonuniform List<scalar> 459
(
  302.689
  302.409
  302.394
  302.39
  302.386
  302.381
  302.376
  302.37
  302.362
  302.351
  302.341
  302.332
  302.328
  302.328
  302.336
  302.467
  302.44
  302.431
  302.434
  302.439
  302.444
  302.449
  302.454
  302.459
  302.464
  302.468
  302.473
  302.477
  302.482
  302.486
  302.491
  302.496
  302.503
  302.527
  302.875
  302.45
  302.422
  302.423
  302.424
  302.424
  302.42
  302.412
  302.396
  302.373
  302.35
  302.33
  302.317
  302.312
  302.312
  302.312
  302.308
  302.469
  302.422
  302.414
  302.418
  302.424
  302.43
  302.433
  302.434
  302.436
  302.437
  302.439
  302.44
  302.442
  302.443
  302.446
  302.451
  302.458
  302.469
  302.508
  303.069
  302.503
  302.456
  302.464
  302.476
  302.485
  302.487
  302.478
  302.451
  302.411
  302.369
  302.335
  302.313
  302.305
  302.307
  302.311
  302.314
  302.397
  302.395
  302.404
  302.418
  302.431
  302.441
  302.441
  302.44
  302.44
  302.44
  302.44
  302.44
  302.44
  302.44
  302.44
  302.443
  302.448
  302.458
  302.5
  303.266
  302.57
  302.494
  302.507
  302.533
  302.558
  302.574
  302.564
  302.521
  302.455
  302.389
  302.338
  302.308
  302.299
  302.303
  302.313
  302.323
  302.339
  302.359
  302.386
  302.413
  302.438
  302.46
  302.476
  302.489
  302.5
  302.51
  302.519
  302.526
  302.531
  302.535
  302.538
  302.539
  302.507
  302.48
  302.468
  302.502
  303.458
  302.657
  302.542
  302.55
  302.588
  302.631
  302.665
  302.649
  302.583
  302.486
  302.399
  302.334
  302.299
  302.29
  302.3
  302.319
  302.34
  302.365
  302.393
  302.425
  302.456
  302.485
  302.509
  302.528
  302.545
  302.559
  302.57
  302.578
  302.583
  302.585
  302.583
  302.578
  302.569
  302.544
  302.51
  302.484
  302.499
  302.594
  302.639
  302.646
  303.631
  302.77
  302.627
  302.614
  302.653
  302.711
  302.741
  302.699
  302.605
  302.491
  302.388
  302.315
  302.28
  302.278
  302.3
  302.332
  302.368
  302.404
  302.442
  302.479
  302.513
  302.543
  302.567
  302.585
  302.601
  302.612
  302.621
  302.627
  302.629
  302.626
  302.619
  302.608
  302.594
  302.571
  302.538
  302.506
  302.502
  302.542
  302.561
  302.601
  303.792
  302.951
  302.813
  302.786
  302.802
  302.839
  302.805
  302.706
  302.571
  302.436
  302.328
  302.264
  302.245
  302.264
  302.308
  302.362
  302.415
  302.464
  302.508
  302.546
  302.579
  302.605
  302.626
  302.641
  302.652
  302.66
  302.665
  302.667
  302.666
  302.66
  302.648
  302.634
  302.617
  302.594
  302.565
  302.533
  302.519
  302.53
  302.543
  302.577
  304.025
  303.4
  303.25
  303.168
  303.101
  302.978
  302.801
  302.602
  302.419
  302.279
  302.199
  302.178
  302.205
  302.264
  302.342
  302.421
  302.489
  302.544
  302.586
  302.619
  302.644
  302.663
  302.677
  302.687
  302.694
  302.698
  302.699
  302.698
  302.694
  302.687
  302.676
  302.66
  302.644
  302.624
  302.602
  302.579
  302.573
  302.592
  302.619
  302.771
  304.36
  304.064
  303.767
  303.457
  303.099
  302.702
  302.364
  302.124
  301.994
  301.962
  302.004
  302.096
  302.207
  302.32
  302.433
  302.526
  302.586
  302.627
  302.658
  302.681
  302.698
  302.71
  302.718
  302.723
  302.726
  302.726
  302.725
  302.723
  302.719
  302.716
  302.713
  302.713
  302.716
  302.725
  302.744
  302.774
  302.815
  302.856
  302.882
  302.945
  293.381
  295.322
  297.261
  298.711
  299.768
  300.565
  301.174
  301.631
  301.972
  302.232
  302.393
  302.501
  302.58
  302.635
  302.672
  302.698
  302.716
  302.729
  302.739
  302.745
  302.749
  302.751
  302.753
  302.753
  302.753
  302.753
  302.754
  302.755
  302.756
  302.759
  302.765
  302.776
  302.794
  302.818
  302.848
  302.876
  302.897
  302.919
  294.563
  297.006
  299.184
  300.288
  300.99
  301.484
  301.842
  302.113
  302.318
  302.468
  302.568
  302.636
  302.682
  302.713
  302.734
  302.748
  302.758
  302.764
  302.768
  302.771
  302.773
  302.774
  302.775
  302.776
  302.776
  302.777
  302.778
  302.78
  302.781
  302.784
  302.789
  302.797
  302.809
  302.826
  302.846
  302.869
  302.867
  302.9
  298.264
  298.188
  298.183
  300.496
  301.424
  301.824
  302.07
  302.257
  302.403
  302.518
  302.606
  302.671
  302.717
  302.747
  302.768
  302.782
  302.792
  302.798
  302.801
  302.803
  302.804
  302.805
  302.804
  302.804
  302.804
  302.803
  302.803
  302.802
  302.802
  302.801
  302.801
  302.802
  302.804
  302.807
  302.813
  302.826
  302.837
  302.845
  302.848
  302.888
)
;

boundaryField
{
  floor
  {
    type wallHeatTransfer;
    Tinf uniform 305.2;
    alphaWall uniform 0.24;
    value nonuniform List<scalar> 29
(
  302.607
  302.958
  302.875
  302.833
  302.837
  302.852
  302.87
  302.893
  302.918
  302.943
  302.968
  302.991
  303.014
  303.036
  303.057
  303.078
  303.099
  303.122
  303.14
  303.192
  303.192
  303.071
  303.011
  302.979
  302.607
  302.958
  302.939
  302.695
  302.569
)
;
  }
  ceiling
  {
    type wallHeatTransfer;
    Tinf uniform 303.2;
    alphaWall uniform 0.24;
    value nonuniform List<scalar> 43
(
  298.587
  298.5
  298.485
  300.65
  301.528
  301.908
  302.14
  302.318
  302.458
  302.568
  302.654
  302.719
  302.765
  302.797
  302.82
  302.836
  302.847
  302.854
  302.859
  302.861
  302.863
  302.863
  302.862
  302.861
  302.86
  302.859
  302.857
  302.855
  302.853
  302.851
  302.849
  302.848
  302.848
  302.849
  302.852
  302.861
  302.871
  302.879
  302.884
  302.921
  304.308
  304.03
  295.074
)
;
  }
  sWall
  {
    type wallHeatTransfer;
    Tinf uniform 315.2;
    alphaWall uniform 0.36;
    value uniform 299.877;
  }
  nWall
  {
    type wallHeatTransfer;
    Tinf uniform 307.2;
    alphaWall uniform 0.36;
    value nonuniform List<scalar> 6
(
  303.451
  303.389
  303.293
  303.521
  303.499
  303.54
)
;
  }
  sideWalls
  {
    type empty;
  }
  glass1
  {
    type wallHeatTransfer;
    Tinf uniform 315.2;
    alphaWall uniform 4.3;
    value nonuniform List<scalar> 9
(
  311.128
  310.441
  310.013
  309.692
  309.426
  309.187
  309.018
  309.105
  309.357
)
;
  }
  glass2
  {
    type wallHeatTransfer;
    Tinf uniform 307.2;
    alphaWall uniform 4.3;
    value nonuniform List<scalar> 2
(
  305.445
  305.586
)
;
  }
  sun
  {
    type wallHeatTransfer;
    Tinf uniform 305.2;
    alphaWall uniform 0.24;
    value nonuniform List<scalar> 14
(
  302.944
  302.673
  302.656
  302.642
  302.63
  302.619
  302.608
  302.596
  302.584
  302.573
  302.565
  302.563
  302.568
  302.583
)
;
  }
  heatsource1
  {
    type fixedGradient;
    gradient uniform 0;
  }
  heatsource2
  {
    type fixedGradient;
    gradient uniform 0;
  }
  Table_master
  {
    type zeroGradient;
  }
  Table_slave
  {
    type zeroGradient;
  }
  inlet
  {
    type fixedValue;
    value uniform 290.15;
  }
  outlet
  {
    type zeroGradient;
  }
} 	// ************************************************************************* //

