/*--------------------------------*- C++ -*----------------------------------*\
  =========                 |
  \\      /  F ield         | OpenFOAM: The Open Source CFD Toolbox
   \\    /   O peration     | Website:  https://openfoam.org
    \\  /    A nd           | Version:  6
     \\/     M anipulation  |
\*---------------------------------------------------------------------------*/
FoamFile
{
    version     2.0;
    format      ascii;
    class       volScalarField;
    location    "2300";
    object      nut;
}
// * * * * * * * * * * * * * * * * * * * * * * * * * * * * * * * * * * * * * //

dimensions      [0 2 -1 0 0 0 0];

internalField   nonuniform List<scalar> 
459
(
0.00113861
0.00124717
0.00127146
0.00133431
0.00139323
0.00144913
0.00150493
0.00155593
0.00158998
0.00160126
0.00158477
0.00153747
0.00145842
0.00135221
0.0012321
0.000511108
0.000616312
0.000692949
0.000690999
0.000667304
0.000635699
0.000595497
0.000555643
0.000519573
0.000487642
0.00045944
0.000434448
0.000412248
0.000392375
0.000374123
0.000356609
0.000338648
0.000328093
0.000301289
0.0015495
0.0038859
0.00376033
0.0043908
0.0050122
0.00562354
0.00614013
0.00654659
0.00690407
0.00718409
0.00735063
0.00736661
0.0071754
0.00663105
0.00513878
0.00126588
0.000735611
0.000542787
0.00113857
0.00158732
0.00191596
0.00209241
0.00208356
0.00165817
0.00142497
0.00125959
0.00113332
0.00103329
0.00095201
0.000882487
0.000817646
0.000754466
0.000697979
0.000647384
0.000773749
0.000401854
0.00188846
0.00531185
0.0046966
0.00587827
0.00647868
0.0069259
0.0072718
0.00756477
0.00787332
0.00818299
0.00845399
0.00864026
0.00868843
0.00850735
0.00783936
0.0059341
0.00129762
0.00104895
0.00153149
0.0019812
0.00239357
0.00267614
0.00260308
0.000848084
0.000747141
0.000666093
0.000600806
0.000547727
0.000504114
0.00046799
0.000438102
0.000413927
0.000446486
0.000515908
0.000879322
0.00047091
0.00221117
0.0067524
0.00474883
0.00622855
0.00674781
0.00694232
0.00708516
0.00726534
0.00753208
0.00786759
0.00821886
0.00852937
0.00873734
0.00876592
0.00855822
0.00781266
0.00532119
0.00152951
0.00189876
0.00246097
0.00301883
0.00346619
0.00373557
0.00348923
0.000954662
0.00086661
0.000803239
0.000754489
0.00071275
0.000675088
0.000638883
0.000601089
0.000557649
0.000523851
0.000542133
0.00104
0.000521526
0.00253848
0.00858047
0.00525366
0.00605233
0.00670315
0.0067705
0.00674933
0.00688293
0.00712703
0.00748391
0.00788344
0.00824949
0.00849182
0.00855656
0.00843756
0.00810097
0.00735171
0.00610047
0.00566435
0.00552646
0.00548197
0.00544571
0.00536786
0.00512787
0.00428409
0.00387395
0.00363081
0.00344145
0.00324551
0.00296718
0.0026088
0.0021872
0.00172955
0.00127994
0.000948777
0.00100686
0.000685478
0.000640509
0.000764377
0.00085592
0.00288406
0.0105635
0.00718512
0.00617191
0.00664637
0.00675693
0.00670967
0.00679406
0.00698542
0.00731512
0.00774158
0.00815059
0.00841406
0.00845343
0.00827955
0.00797905
0.00764732
0.00733681
0.00716234
0.00701413
0.00682881
0.006609
0.00635984
0.00605752
0.00564009
0.00527499
0.0049587
0.00466355
0.00437113
0.00405663
0.00367176
0.00320324
0.00265471
0.00206194
0.00155066
0.00115025
0.000918414
0.000814405
0.00117551
0.000897675
0.00319082
0.0119098
0.00988538
0.00793297
0.00760215
0.00732228
0.00703049
0.00691421
0.00703762
0.00739043
0.00787634
0.00833296
0.00859738
0.00858021
0.00831424
0.00796098
0.00772987
0.00769362
0.00770194
0.00758335
0.00731769
0.00695866
0.00654584
0.00609966
0.00564319
0.00523364
0.00487163
0.0045451
0.0042514
0.00399515
0.00377499
0.003462
0.00303364
0.00252066
0.00204926
0.00161703
0.0013429
0.00127347
0.00129708
0.0010234
0.0032436
0.0103885
0.0093866
0.008675
0.0079925
0.00731448
0.00689984
0.00685393
0.00716159
0.00771823
0.00834632
0.00883526
0.00902046
0.00885134
0.00842693
0.00800168
0.00783015
0.00787311
0.00779047
0.00747039
0.00698375
0.00640937
0.0058132
0.00525513
0.00477834
0.00439194
0.00407747
0.00382223
0.00362513
0.00349037
0.00342094
0.00338327
0.00317659
0.00285131
0.00258546
0.00248127
0.00262764
0.00307028
0.00394079
0.00154912
0.00315186
0.00371577
0.00409158
0.00418438
0.00440138
0.00488241
0.00564151
0.00662382
0.00769855
0.00868637
0.00939798
0.00967746
0.00948786
0.00894521
0.0083208
0.007943
0.0077208
0.00748065
0.00706883
0.0064739
0.00578015
0.00508606
0.00447364
0.00398415
0.0036125
0.00332909
0.00310538
0.00292368
0.00277307
0.0026448
0.00253171
0.0024334
0.0023603
0.0023153
0.00231416
0.00234566
0.00234575
0.00225774
0.00209872
0.00143818
0.00144128
0.00367551
0.00668485
0.00865815
0.00996804
0.0107752
0.0111181
0.0110634
0.0106872
0.0100729
0.00920229
0.00831597
0.0076399
0.00718064
0.00673221
0.0061758
0.00552031
0.00483787
0.00419948
0.00365886
0.00324633
0.00294878
0.00273465
0.00257676
0.00245803
0.00236942
0.00230692
0.00226997
0.00226105
0.00227871
0.0023136
0.00236425
0.00242558
0.00247901
0.0025002
0.0024908
0.0022079
0.00118836
0.00218733
0.00679369
0.00937836
0.0100676
0.0102845
0.010143
0.00967165
0.00898994
0.00821337
0.00745011
0.0067302
0.00612813
0.00563654
0.0051545
0.00463326
0.00410682
0.00361982
0.00320304
0.00286758
0.0026087
0.00241197
0.00227086
0.00217361
0.00211221
0.00208191
0.00207861
0.00209708
0.00213382
0.00219453
0.00227486
0.00237154
0.00247869
0.00258373
0.00267261
0.00274528
0.00275667
0.0019048
0.00122695
0.00195984
0.00207899
0.00216482
0.00233556
0.00224453
0.00215945
0.00208912
0.00198674
0.00184831
0.00168209
0.00149695
0.00130906
0.00114106
0.00100652
0.000905645
0.000831564
0.000776869
0.000736319
0.00070699
0.000687371
0.000676392
0.000673163
0.000676545
0.000684996
0.000698098
0.000715683
0.000737808
0.00076478
0.00079729
0.000836106
0.000880828
0.000931934
0.000989778
0.00105473
0.00112651
0.00120901
0.00123149
0.00112181
0.00104544
0.00118597
)
;

boundaryField
{
    floor
    {
        type            nutkWallFunction;
        Cmu             0.09;
        kappa           0.41;
        E               9.8;
        value           nonuniform List<scalar> 
29
(
0.000147687
6.11354e-05
7.43853e-05
8.38623e-05
8.36227e-05
8.07058e-05
7.67954e-05
7.17872e-05
6.67816e-05
6.22132e-05
5.81361e-05
5.45075e-05
5.12685e-05
4.83716e-05
4.57615e-05
4.33494e-05
4.10206e-05
3.86169e-05
3.71965e-05
3.35621e-05
3.35621e-05
4.70078e-05
5.59858e-05
6.24607e-05
0.000147687
6.11353e-05
6.51574e-05
0.00012646
0.000181431
)
;
    }
    ceiling
    {
        type            nutkWallFunction;
        Cmu             0.09;
        kappa           0.41;
        E               9.8;
        value           nonuniform List<scalar> 
43
(
0.000228829
0.000241775
0.000251053
0.00026954
0.000259824
0.000250673
0.000243074
0.000231951
0.000216808
0.000198457
0.00017778
0.000156503
0.000137187
0.000121486
0.000109556
0.000100697
9.40971e-05
8.91687e-05
8.55841e-05
8.31763e-05
8.18254e-05
8.14276e-05
8.18442e-05
8.28843e-05
8.44938e-05
8.66483e-05
8.93503e-05
9.26311e-05
9.65675e-05
0.000101243
0.000106598
0.00011268
0.000119516
0.000127139
0.000135502
0.000145038
0.000147624
0.000134956
0.000126053
0.000142386
0.000355893
0.000413986
0.000253273
)
;
    }
    sWall
    {
        type            nutkWallFunction;
        Cmu             0.09;
        kappa           0.41;
        E               9.8;
        value           uniform 0.000228894;
    }
    nWall
    {
        type            nutkWallFunction;
        Cmu             0.09;
        kappa           0.41;
        E               9.8;
        value           nonuniform List<scalar> 6(0.000103621 0.00010861 0.000123473 0.00014267 0.000147115 0.000142396);
    }
    sideWalls
    {
        type            empty;
    }
    glass1
    {
        type            nutkWallFunction;
        Cmu             0.09;
        kappa           0.41;
        E               9.8;
        value           nonuniform List<scalar> 9(0.000137032 0.000183928 0.000221558 0.000256703 0.000291793 0.000328327 0.000360378 0.000365872 0.000356357);
    }
    glass2
    {
        type            nutkWallFunction;
        Cmu             0.09;
        kappa           0.41;
        E               9.8;
        value           nonuniform List<scalar> 2(0.000183727 0.000171241);
    }
    sun
    {
        type            nutkWallFunction;
        Cmu             0.09;
        kappa           0.41;
        E               9.8;
        value           nonuniform List<scalar> 
14
(
0.000136905
0.000149419
0.000152202
0.000159377
0.000166069
0.00017239
0.000178672
0.000184392
0.000188199
0.000189457
0.000187616
0.000182322
0.000173436
0.000161412
)
;
    }
    heatsource1
    {
        type            nutkWallFunction;
        Cmu             0.09;
        kappa           0.41;
        E               9.8;
        value           nonuniform List<scalar> 3(7.73936e-05 9.25824e-05 0.000103618);
    }
    heatsource2
    {
        type            nutkWallFunction;
        Cmu             0.09;
        kappa           0.41;
        E               9.8;
        value           nonuniform List<scalar> 4(0.000151555 8.90837e-05 8.90837e-05 0.000155186);
    }
    Table_master
    {
        type            nutkWallFunction;
        Cmu             0.09;
        kappa           0.41;
        E               9.8;
        value           nonuniform List<scalar> 9(0.000102679 9.04877e-05 8.05584e-05 7.24546e-05 6.57875e-05 6.02501e-05 5.56187e-05 5.17531e-05 4.86021e-05);
    }
    Table_slave
    {
        type            nutkWallFunction;
        Cmu             0.09;
        kappa           0.41;
        E               9.8;
        value           nonuniform List<scalar> 9(0.000115368 0.000104897 9.72852e-05 9.13814e-05 8.62907e-05 8.16668e-05 7.71925e-05 7.24892e-05 6.70385e-05);
    }
    inlet
    {
        type            calculated;
        value           uniform 0.000100623;
    }
    outlet
    {
        type            calculated;
        value           nonuniform List<scalar> 2(0.00195984 0.00207899);
    }
}


// ************************************************************************* //
