/*--------------------------------*- C++ -*----------------------------------*=========                 |
  \      /  F ield         | OpenFOAM: The Open Source CFD Toolbox
   \    /   O peration     | Website:  https://openfoam.org
    \  /    A nd           | Version:  6
     \/     M anipulation  |
\*---------------------------------------------------------------------------*/
FoamFile
{
    version     2.0;
    format      ascii;
    class       volScalarField;
    location    "2300";
    object      PMV;
}
// * * * * * * * * * * * * * * * * * * * * * * * * * * * * * * * * * * * * * //

dimensions      [0 0 0 0 0 0 0];

internalField   nonuniform List<scalar> 
459
(
1.6539353614883296
1.4380347243582419
1.4118339629775283
1.3888661072756694
1.372869082110305
1.363975151207255
1.361274883007836
1.3651540075948065
1.3748981237912867
1.391624756073095
1.4172929515327666
1.452937027223997
1.5001142002091665
1.5372750349330107
1.5415746316761423
1.6060506941266632
1.593157776137871
1.5883822828804262
1.5898149498434095
1.592202691976645
1.5950679226201474
1.596979553419459
1.5928557245385022
1.5921092275288917
1.5928645168055655
1.5946654163179539
1.5964498499734885
1.5987872298013375
1.6020215992096725
1.6071235755953543
1.6162546613270024
1.62276170157783
1.6261036209374495
1.6385156219075112
1.6165400681186604
1.459050647870579
1.4509225738472573
1.4295676072235373
1.4173406007543343
1.4099280471473616
1.407607205385455
1.4096210327782683
1.4141984950913185
1.4230690087907754
1.4377837842134762
1.4613887823035498
1.4961313991542762
1.5286754520454626
1.529630986664022
1.5291532201439013
1.5291532201439013
1.569654800492755
1.5836066096133192
1.5797859426401575
1.581218706056544
1.5778352470707597
1.5735770073857134
1.57215655873111
1.572695522293931
1.5742642362175634
1.575045027843632
1.5756663143943084
1.575906448203657
1.5767603569604882
1.5782841548582354
1.5807630816751919
1.5883318851172894
1.6036632184471722
1.609393081492089
1.6005266648622412
1.658410917685637
1.4619649957685052
1.4863432981909441
1.476866266474766
1.474342455477081
1.4734869384011926
1.4749689726888795
1.475819656174713
1.4715553846103184
1.4645973850353828
1.46084417531959
1.4669123751712103
1.4851118448259
1.5156233283614844
1.5262865879391876
1.5286754520454626
1.530108751604152
1.4795754047802903
1.5204846967332442
1.5335073108416628
1.5422498360398806
1.5521336491967677
1.5588310386582342
1.5623962822846569
1.5709371855825418
1.5765715589613205
1.579189913735422
1.5803652291896009
1.5814365662456236
1.5814770666017213
1.5806402972620415
1.5765009549152624
1.578553570495933
1.5962120518497231
1.587453479769768
1.5394161726446667
1.7343188907014917
1.4680222250707669
1.5146560652760823
1.5248186632470964
1.5422836265548197
1.5582755562967943
1.57020232004309
1.5656620530984908
1.5393490204136713
1.5030140902394402
1.472715378648742
1.456775104423219
1.459543768569788
1.480255939397614
1.5117020080888912
1.529630986664022
1.5149445480576547
1.4746773410478784
1.4737877658964371
1.501162706617843
1.5268303030181891
1.548276728569428
1.5672411288999675
1.5806989361985868
1.5860465901505927
1.5852306049495573
1.5852751395320188
1.5863654527276194
1.5885137574402068
1.592028015584551
1.5987435731932977
1.6107111173867086
1.6328345543554112
1.6262902430328208
1.6120537038350229
1.5675667535358213
1.4949627636816158
1.8235551864611779
1.488174494561608
1.5416910873027565
1.570733507463765
1.6185571318580307
1.6731043904292857
1.697214979097487
1.65107385322638
1.5795627154862424
1.510359024976998
1.4607586764581597
1.433477491681072
1.4305307762956925
1.447423153325118
1.4764221080627342
1.5033815602218692
1.5100804313947862
1.5070258973692512
1.5158596229343737
1.540174090117857
1.5695775098898426
1.5963621148522649
1.619277572703043
1.6342193114533332
1.6432891098853857
1.6499716528103656
1.6513144521588201
1.651467218976466
1.6512075728597968
1.6496579804525096
1.6488156903969455
1.649904428440433
1.6513351096894633
1.6370693430422865
1.6108642481016062
1.5498493084564604
1.5435932748584904
1.6728801423597544
1.658998149321669
1.4969102368338438
1.9136089729376367
1.5310762656813017
1.5946903733958233
1.6242116233431714
1.6933981310283874
1.7215439399037775
1.7098359239388004
1.6300177924136634
1.5527475595012021
1.4813150841128322
1.4285784174860958
1.4015758300413932
1.4022832536045378
1.4251484182108236
1.4627066182614272
1.5030454125978432
1.5340726401638827
1.5560077121283944
1.5797424299731115
1.6103480323906898
1.6270584375099422
1.641857084637666
1.6537900686491567
1.6628582741222173
1.6709712875801392
1.6771749396413083
1.681946730515715
1.6852868539490888
1.6867183023895884
1.6857640056369871
1.6824238975931975
1.6776521285232808
1.6704940685262315
1.6480931300633688
1.6135290127213737
1.5496343122309997
1.5482200550480452
1.5624826175323174
1.561172617592673
1.5735075035057335
2.0028516200814424
1.6266971405859563
1.7458236180296653
1.7198619150965702
1.7163796393786592
1.6900221598619625
1.6363950233663087
1.5633564719247535
1.4848541745438555
1.4164717625519547
1.3724926802517041
1.3602371669201991
1.3787841641075476
1.4202453375967792
1.4776075216503217
1.5397971421340366
1.5807411200209442
1.6046182143131695
1.625626209723606
1.6442437832744017
1.6599947117587852
1.6733573506852548
1.6833782251696756
1.69101252806817
1.697214979097487
1.7019858357629867
1.7053252998635835
1.7067564643685889
1.7067564643685889
1.7043711787101943
1.6986462599133523
1.6914896531301142
1.6829010624785739
1.6714485044924994
1.6342589682548374
1.5753439696256228
1.5519447090441343
1.5394893133382292
1.5138842861931272
1.6007405922190996
2.1351086665275427
1.9454993727821739
1.9014380598121299
1.8019650272089103
1.7426880664182416
1.6607370848015854
1.556182904005217
1.4495186753384373
1.361596495589543
1.3080236782243697
1.294392837675354
1.3204240173573938
1.37619813515999
1.45308610655278
1.5432279386956556
1.585994468631806
1.6184648087180054
1.645198448557086
1.6652445181916462
1.6809923897928762
1.6933981310283874
1.7029399797989437
1.7105728015742676
1.7158200225339757
1.7196360052017539
1.722497893033843
1.7239288049021408
1.7239288049021408
1.722497893033843
1.7196360052017539
1.7143889902840308
1.7067564643685889
1.698169168570448
1.6876725902968677
1.6766977485905254
1.665721760664317
1.642160343675855
1.6286718027519986
1.5692245806307594
1.487916030699313
2.332274613193756
2.2008922632352106
2.035438086388028
1.8546278106537
1.6463380852186726
1.430848125514136
1.2605727708447898
1.1565042156306775
1.12307725380421
1.1509469579717424
1.225860763327296
1.3325575493271478
1.454853265592044
1.5391859829709376
1.594590388734301
1.6389929797497016
1.6676307093484666
1.6871954474499764
1.7015087603230052
1.7129579369918426
1.7215439399037775
1.7249586070796594
1.7244319951978933
1.7237974416317543
1.722162889202481
1.719437193466411
1.715166035543465
1.7090826802717443
1.7014274944478405
1.692280696178469
1.6814761762528958
1.669559614966888
1.6587353771101445
1.645662758801013
1.631428382914531
1.6188065654026806
1.6094203183826015
1.6026119894639905
1.5896656726278646
1.5612640653595307
-2.9752000423217595
-1.8365096910536352
-1.139329077930409
-0.3929078459345483
0.16737353238666627
0.6012395446047514
0.952391751695323
1.214993183966796
1.378108563650837
1.5033515290218085
1.5778755666920554
1.6294454446943185
1.650894969870015
1.6679567777282815
1.6807380485077605
1.6898622899055593
1.695919166882208
1.699919427812556
1.701225833294562
1.70141811436981
1.700220862997025
1.6980370759484094
1.6951408298207093
1.6913525293820384
1.6870897458568759
1.6819634518072566
1.677179521429913
1.6720966720399826
1.668546271315631
1.6660932236260495
1.6642750297752809
1.663071493854827
1.6629497270753353
1.6650351207134626
1.6734470526820497
1.703952254154545
1.8159362567037876
1.6619569558058291
-2.46976235749081
-1.003079422192577
0.04106766274123371
0.5736556229061152
0.8993807550342787
1.102266252214427
1.2560874375915656
1.3745264374503883
1.466820654923713
1.535681032209197
1.5823092059921928
1.6151943799575188
1.6388333907384236
1.6555324487667133
1.6670492827650665
1.6751041114819094
1.6806614065719143
1.6843513920649278
1.6863892141406045
1.6875295012226226
1.688133414614317
1.68850186744494
1.688091894721616
1.687374623265409
1.6858876002106542
1.6847127278510068
1.6835801524370293
1.6828955245339103
1.6836858002200448
1.686312214991034
1.6926675732886618
1.7032149687363514
1.7157708635680973
1.7273120633301264
1.7417248998333479
1.8025941851896568
1.7010340760410434
1.7885626357352542
-0.8571542080389475
-0.9966106260384464
-0.8765671261962956
0.3729354154406879
0.8867878206849505
1.1023950047977245
1.2359525452914604
1.3385412466532285
1.4214512781979047
1.488806392602276
1.5436730640896996
1.585620861199948
1.6162427294668626
1.6375944029664145
1.6516099097140395
1.6599729515616475
1.6646977587620924
1.6669366188375785
1.6672892334253018
1.667267304982108
1.6667243011008228
1.666844159046056
1.667070713462761
1.667163396549662
1.6681190824708048
1.6689480956227156
1.6707394294741036
1.6726938065978367
1.6756551825915276
1.680522729998492
1.6873656918969022
1.6980714447198817
1.7168222790704812
1.7505323125243906
1.7811470280917754
1.7859135376481818
1.7906797780658834
1.7166081213173388
1.7209420218528495
1.6237034215869313
)
;

boundaryField
{
    ".*"
    {
        type            zeroGradient;
    }
}


// ************************************************************************* //
