/*--------------------------------*- C++ -*----------------------------------*\
  =========                 |
  \\      /  F ield         | OpenFOAM: The Open Source CFD Toolbox
   \\    /   O peration     | Website:  https://openfoam.org
    \\  /    A nd           | Version:  6
     \\/     M anipulation  |
\*---------------------------------------------------------------------------*/
FoamFile
{
    version     2.0;
    format      ascii;
    class       volScalarField;
    location    "400";
    object      epsilon;
}
// * * * * * * * * * * * * * * * * * * * * * * * * * * * * * * * * * * * * * //

dimensions      [0 2 -3 0 0 0 0];

internalField   nonuniform List<scalar> 
459
(
0.000464002
0.000606306
0.000640993
0.000739576
0.000839294
0.000939911
0.00104508
0.00116039
0.00125111
0.00129982
0.00129045
0.00121574
0.0010835
0.000920483
0.000763187
4.23415e-05
7.93972e-05
0.000107187
9.86485e-05
8.49712e-05
7.10917e-05
5.79734e-05
4.72425e-05
3.88442e-05
3.22977e-05
2.71566e-05
2.30719e-05
1.98114e-05
1.71487e-05
1.49073e-05
1.29304e-05
1.10614e-05
1.00194e-05
7.75842e-06
0.00118627
0.00171974
0.000579001
0.000563686
0.000593118
0.000637157
0.000698507
0.000781719
0.000864379
0.000924008
0.000939531
0.000900273
0.000809637
0.000691868
0.000622787
0.000809908
0.000197663
5.74023e-05
0.000140634
0.000139617
0.000120462
9.768e-05
7.78676e-05
6.59722e-05
5.2581e-05
4.14425e-05
3.27727e-05
2.61367e-05
2.10562e-05
1.71858e-05
1.42265e-05
1.20801e-05
1.08387e-05
1.03789e-05
2.96645e-05
1.92222e-05
0.00217571
0.00425763
0.00073185
0.000541696
0.000569118
0.000638778
0.000738722
0.00086618
0.000990829
0.00107863
0.00110721
0.00107141
0.000979093
0.000849535
0.000736623
0.000673754
0.000741994
0.000498195
0.000327708
0.000232402
0.000170185
0.000127895
0.000101803
0.000168601
0.000116757
8.38095e-05
6.22435e-05
4.76749e-05
3.7535e-05
3.02954e-05
2.50369e-05
2.12093e-05
1.6087e-05
1.34937e-05
5.64723e-05
3.10883e-05
0.00354254
0.0088849
0.0011974
0.000560693
0.000563708
0.000662779
0.000818464
0.00101807
0.0011891
0.00129035
0.00131164
0.00126043
0.00114991
0.000991175
0.000839445
0.00072254
0.000689995
0.00132067
0.000718023
0.000416068
0.000268873
0.000186634
0.000136786
0.000111703
0.000235995
0.000177706
0.000142157
0.000118377
0.000100371
8.58991e-05
7.3435e-05
6.18063e-05
4.99878e-05
2.9711e-05
2.01651e-05
9.57196e-05
4.23891e-05
0.00543731
0.0158326
0.00244272
0.000715014
0.000612138
0.000740156
0.00101335
0.00132162
0.00151593
0.00159547
0.00158208
0.00149424
0.0013427
0.00114376
0.000929397
0.00072956
0.000570601
0.000487819
0.00038084
0.000286555
0.000213178
0.000159637
0.000122381
9.93698e-05
9.35506e-05
8.60976e-05
7.91223e-05
7.24639e-05
6.55674e-05
5.84492e-05
5.15391e-05
4.51178e-05
3.92949e-05
3.13491e-05
2.45831e-05
6.72852e-05
4.81359e-05
8.52303e-05
0.000146231
0.000203016
0.00807961
0.0234333
0.00555752
0.00152118
0.0010518
0.00118997
0.00168457
0.00197013
0.00206588
0.00205106
0.0019679
0.00182208
0.0016104
0.00134404
0.00105467
0.000782627
0.000564397
0.000417065
0.000317708
0.000241849
0.000181704
0.000137505
0.000108075
9.12813e-05
8.45381e-05
8.22916e-05
8.09938e-05
7.88928e-05
7.48401e-05
6.78483e-05
5.86622e-05
4.94304e-05
4.11667e-05
3.40834e-05
3.05157e-05
4.77933e-05
4.97305e-05
6.27111e-05
0.000272862
0.00023022
0.0110815
0.0279018
0.0112904
0.00499945
0.00355848
0.00340792
0.0033632
0.00318168
0.00295618
0.00273808
0.00252242
0.00227389
0.00196304
0.00159488
0.00120783
0.00085324
0.000577407
0.000393582
0.00027821
0.000202095
0.000148882
0.000114295
9.50759e-05
8.74324e-05
8.75063e-05
9.11282e-05
9.54441e-05
9.91716e-05
0.000101097
9.9332e-05
8.98037e-05
7.81108e-05
6.68295e-05
5.74287e-05
5.47493e-05
6.4451e-05
8.16369e-05
0.000131091
0.00034109
0.000313134
0.0116941
0.0295749
0.0168447
0.0120507
0.0094019
0.00738642
0.00585627
0.00480261
0.00411111
0.00364445
0.00326731
0.00287046
0.00239737
0.00186621
0.00133749
0.000874761
0.000539273
0.000332169
0.00021113
0.000149524
0.000114209
9.56282e-05
8.85374e-05
8.91689e-05
9.47805e-05
0.000103384
0.000113982
0.000126447
0.00014084
0.000156865
0.000173064
0.000178808
0.000186043
0.000203725
0.000241089
0.000361305
0.000658243
0.00132651
0.0047586
0.00118222
0.0107495
0.017757
0.0143117
0.010915
0.00851701
0.00696844
0.00601666
0.00544999
0.00507758
0.0047237
0.00425613
0.00361409
0.00281984
0.00200632
0.00128546
0.000702013
0.0003724
0.000218373
0.000143181
0.000106329
8.86591e-05
8.21792e-05
8.2628e-05
8.76291e-05
9.59629e-05
0.000107191
0.000121556
0.000139932
0.000163782
0.000195261
0.000237427
0.000294821
0.00037421
0.000497673
0.000682589
0.000940342
0.00124659
0.00153002
0.00173974
0.000955065
0.0037221
0.00652689
0.00807864
0.00852865
0.0085492
0.00817632
0.00739779
0.00625828
0.00491255
0.00352574
0.00216828
0.00126981
0.000706442
0.000376577
0.000211351
0.000134816
9.86532e-05
8.16016e-05
7.42483e-05
7.25792e-05
7.46235e-05
7.93686e-05
8.64483e-05
9.59381e-05
0.000108291
0.000124387
0.000145673
0.000174447
0.000214401
0.000270926
0.000350735
0.000463832
0.000618587
0.000811711
0.00101892
0.00120394
0.00110597
0.00052707
0.00344432
0.00799543
0.00834021
0.00705542
0.00631597
0.00545879
0.00439891
0.0033239
0.00234874
0.00153673
0.000917256
0.000526173
0.000302691
0.000184485
0.000126295
9.81071e-05
8.38726e-05
7.64861e-05
7.28974e-05
7.18267e-05
7.29204e-05
7.6164e-05
8.16896e-05
8.98469e-05
0.000101229
0.000116728
0.000137658
0.000165958
0.000204307
0.000256453
0.000327729
0.000424207
0.000548905
0.000695593
0.00085014
0.00107968
0.000571839
0.000574075
0.00251944
0.00301363
0.00340194
0.00432184
0.00394733
0.00354371
0.00324229
0.00282589
0.00230663
0.00176007
0.00125217
0.000827897
0.000514616
0.000314251
0.000199417
0.000137144
0.000103921
8.64712e-05
7.7889e-05
7.46214e-05
7.48301e-05
7.76395e-05
8.24057e-05
8.88961e-05
9.72155e-05
0.000107603
0.000120439
0.000136302
0.000156112
0.000181336
0.000212754
0.000252049
0.00030136
0.000363523
0.000441647
0.00054303
0.00057633
0.000429837
0.000356669
0.000544262
)
;

boundaryField
{
    floor
    {
        Cmu             0.09;
        kappa           0.41;
        E               9.8;
        type            epsilonWallFunction;
        value           nonuniform List<scalar> 
29
(
0.000763187
4.23415e-05
7.93972e-05
0.000107187
9.86485e-05
8.49712e-05
7.10917e-05
5.79734e-05
4.72425e-05
3.88442e-05
3.22977e-05
2.71566e-05
2.30719e-05
1.98114e-05
1.71487e-05
1.49073e-05
1.29304e-05
1.10614e-05
1.00194e-05
7.75842e-06
7.75842e-06
1.92222e-05
3.10883e-05
4.23891e-05
0.000763187
4.23415e-05
5.74023e-05
0.000498195
0.00132067
)
;
    }
    ceiling
    {
        Cmu             0.09;
        kappa           0.41;
        E               9.8;
        type            epsilonWallFunction;
        value           nonuniform List<scalar> 
43
(
0.00251944
0.00301363
0.00340194
0.00432184
0.00394733
0.00354371
0.00324229
0.00282589
0.00230663
0.00176007
0.00125217
0.000827897
0.000514616
0.000314251
0.000199417
0.000137144
0.000103921
8.64712e-05
7.7889e-05
7.46214e-05
7.48301e-05
7.76395e-05
8.24057e-05
8.88961e-05
9.72155e-05
0.000107603
0.000120439
0.000136302
0.000156112
0.000181336
0.000212754
0.000252049
0.00030136
0.000363523
0.000441647
0.00054303
0.00057633
0.000429837
0.000356669
0.000544262
0.0107495
0.017757
0.00344432
)
;
    }
    sWall
    {
        Cmu             0.09;
        kappa           0.41;
        E               9.8;
        type            epsilonWallFunction;
        value           uniform 0.00251944;
    }
    nWall
    {
        Cmu             0.09;
        kappa           0.41;
        E               9.8;
        type            epsilonWallFunction;
        value           nonuniform List<scalar> 6(0.000203016 0.00023022 0.000313134 0.00052707 0.000574075 0.000544262);
    }
    sideWalls
    {
        type            empty;
    }
    glass1
    {
        Cmu             0.09;
        kappa           0.41;
        E               9.8;
        type            epsilonWallFunction;
        value           nonuniform List<scalar> 9(0.000464002 0.00118627 0.00217571 0.00354254 0.00543731 0.00807961 0.0110815 0.0116941 0.0107495);
    }
    glass2
    {
        Cmu             0.09;
        kappa           0.41;
        E               9.8;
        type            epsilonWallFunction;
        value           nonuniform List<scalar> 2(0.00118222 0.000955065);
    }
    sun
    {
        Cmu             0.09;
        kappa           0.41;
        E               9.8;
        type            epsilonWallFunction;
        value           nonuniform List<scalar> 
14
(
0.000464002
0.000606306
0.000640993
0.000739576
0.000839294
0.000939911
0.00104508
0.00116039
0.00125111
0.00129982
0.00129045
0.00121574
0.0010835
0.000920483
)
;
    }
    heatsource1
    {
        Cmu             0.09;
        kappa           0.41;
        E               9.8;
        type            epsilonWallFunction;
        value           nonuniform List<scalar> 3(8.52303e-05 0.000146231 0.000203016);
    }
    heatsource2
    {
        Cmu             0.09;
        kappa           0.41;
        E               9.8;
        type            epsilonWallFunction;
        value           nonuniform List<scalar> 4(0.000809908 0.000197663 0.000197663 0.000741994);
    }
    Table_master
    {
        Cmu             0.09;
        kappa           0.41;
        E               9.8;
        type            epsilonWallFunction;
        value           nonuniform List<scalar> 9(0.000168601 0.000116757 8.38095e-05 6.22435e-05 4.76749e-05 3.7535e-05 3.02954e-05 2.50369e-05 2.12093e-05);
    }
    Table_slave
    {
        Cmu             0.09;
        kappa           0.41;
        E               9.8;
        type            epsilonWallFunction;
        value           nonuniform List<scalar> 9(0.000235995 0.000177706 0.000142157 0.000118377 0.000100371 8.58991e-05 7.3435e-05 6.18063e-05 4.99878e-05);
    }
    inlet
    {
        type            turbulentMixingLengthDissipationRateInlet;
        mixingLength    0.01;
        phi             phi;
        k               k;
        value           uniform 0.000101881;
    }
    outlet
    {
        type            zeroGradient;
    }
}


// ************************************************************************* //
