/*--------------------------------*- C++ -*----------------------------------*\
  =========                 |
  \\      /  F ield         | OpenFOAM: The Open Source CFD Toolbox
   \\    /   O peration     | Website:  https://openfoam.org
    \\  /    A nd           | Version:  6
     \\/     M anipulation  |
\*---------------------------------------------------------------------------*/
FoamFile
{
    version     2.0;
    format      ascii;
    class       surfaceScalarField;
    location    "400";
    object      phi;
}
// * * * * * * * * * * * * * * * * * * * * * * * * * * * * * * * * * * * * * //

dimensions      [1 0 -1 0 0 0 0];

internalField   nonuniform List<scalar> 
852
(
-0.00300538
0.00306432
-0.00405719
0.00105179
-0.00485772
0.000800505
-0.00549009
0.000632345
-0.00592765
0.000437542
-0.00615122
0.000223536
-0.00614161
-9.631e-06
-0.00588036
-0.000261275
-0.00537128
-0.000509105
-0.00465278
-0.000718531
-0.00379218
-0.000860626
-0.00286883
-0.000923378
-0.00194891
-0.000919941
-0.00103624
-0.000912694
-0.00103447
-0.000697095
0.000700511
-0.000269589
-0.000427517
0.000410626
-0.000680228
0.000899529
-0.000488915
0.00120228
-0.000302759
0.00137624
-0.000173975
0.00146654
-9.03098e-05
0.00151351
-4.69726e-05
0.00154044
-2.69392e-05
0.00155586
-1.54273e-05
0.00156307
-7.20723e-06
0.001563
7.04326e-08
0.00155332
9.67584e-06
0.00152493
2.83931e-05
0.00145442
7.05141e-05
0.00130302
0.000151401
0.00105866
0.000244372
0.000772238
0.000286426
0.000777022
-0.00213103
0.00535378
-0.00314387
0.00206462
-0.00395456
0.00161117
-0.00456578
0.00124354
-0.00498627
0.000858007
-0.00520705
0.000444292
-0.00520579
-1.09132e-05
-0.00496576
-0.000501336
-0.0045008
-0.000974091
-0.00385917
-0.00136019
-0.00311262
-0.00160721
-0.00233704
-0.00169899
-0.00160512
-0.0016519
-0.00102209
-0.00149575
-0.00083702
-0.00121956
-0.000186252
-0.000650841
-0.000186321
0.000545341
0.000164759
0.000978893
-0.000861083
0.00121123
-0.000912582
0.00141298
-0.000690672
0.00155236
-0.000442154
0.00162021
-0.000241843
0.0016269
-9.70056e-05
0.00162982
-4.99003e-05
0.00163297
-3.0104e-05
0.00163544
-1.78991e-05
0.00163702
-8.79137e-06
0.00163747
-3.8547e-07
0.00163569
1.14539e-05
0.00162772
3.63636e-05
0.00158319
0.00011505
0.00139592
0.000338669
0.00107513
0.000565172
0.000679021
0.000682543
0.00146808
-0.00148314
0.00707886
-0.00235019
0.00293165
-0.00305379
0.00231475
-0.00356072
0.00175045
-0.00391301
0.00121027
-0.00409952
0.000630781
-0.00408117
-2.92833e-05
-0.00383089
-0.000751653
-0.00338022
-0.00142479
-0.00279118
-0.00194926
-0.00213783
-0.00226061
-0.00148447
-0.00235238
-0.000886123
-0.00225027
-0.00040908
-0.00197282
-8.68617e-05
-0.00154181
0.000170358
-0.000908084
-1.59852e-05
0.00157959
-0.00140498
0.00180831
-0.00108982
0.00178385
-0.000888136
0.00178088
-0.000687715
0.00179223
-0.00045352
0.0017569
-0.000206527
0.00166004
0.00161028
0.00158032
0.00156257
0.00155393
0.00155369
0.0015653
0.00160181
0.00171702
0.00141369
0.000642005
0.00104671
0.000932148
0.000589975
0.00113929
0.00207623
-0.00103183
0.00842346
-0.00171679
0.00361659
-0.00216111
0.00275905
-0.00247136
0.00206068
-0.00268227
0.00142116
-0.0027732
0.000721693
-0.00268011
-0.000122392
-0.00237968
-0.00105212
-0.00193718
-0.00186733
-0.00142462
-0.00246187
-0.000906169
-0.00277911
-0.000421235
-0.00283736
8.68594e-06
-0.00268023
0.000372488
-0.00233665
0.000694725
-0.00186407
0.00108866
-0.00130205
0.00185113
-0.000778475
0.00253191
-0.000671613
0.0020476
-0.000920681
0.00192281
-0.00096505
0.00182811
-0.000793452
0.00175065
-0.000610274
0.00172267
-0.000425551
0.00175695
-0.00024082
0.00185316
-9.63664e-05
0.00192207
-6.90706e-05
0.00197952
-5.76113e-05
0.00202152
-4.21642e-05
0.00203177
-1.04056e-05
0.00198874
4.28744e-05
0.00186917
0.000119418
0.00164313
0.000225884
0.00125766
0.000385321
0.00113368
0.000765989
0.000829424
0.00123641
0.000345617
0.0016231
0.0024456
-0.000723727
0.00951982
-0.00124644
0.00413928
-0.00130717
0.00281976
-0.00132783
0.00208131
-0.00131728
0.0014106
-0.00121685
0.000621248
-0.000955816
-0.000383447
-0.000577726
-0.00143023
-0.00017195
-0.00227315
0.000200241
-0.00283411
0.000511631
-0.00309055
0.000757045
-0.00308282
0.0009423
-0.00286553
0.00109468
-0.00248907
0.00124524
-0.00201465
0.00144766
-0.00150449
0.00173183
-0.00106267
0.0018998
-0.000839601
0.00179366
-0.00081456
0.00160908
-0.000780482
0.00146493
-0.000649314
0.00135468
-0.000500042
0.00129028
-0.000361159
0.00128475
-0.000235299
0.00133918
-0.000150801
0.00139535
-0.000125236
0.00145629
-0.000118551
0.00151565
-0.000101526
0.00155967
-5.44289e-05
0.00156745
3.5098e-05
0.0015202
0.00016667
0.00140864
0.000337451
0.00123505
0.000558913
0.00108815
0.00091289
0.000928174
0.00139639
0.000538036
0.00201325
0.000386244
0.0025974
-0.00113559
0.00152164
-0.00158829
0.000452506
-0.00153571
-0.000634998
0.0105777
-0.00100062
0.00450489
-0.000540763
0.00235989
-0.000118667
0.00165921
0.000213007
0.00107892
0.000624837
0.000209411
0.00112001
-0.000878636
0.00153301
-0.00184327
0.00181204
-0.00255223
0.00195324
-0.00297537
0.00198429
-0.00312164
0.00193308
-0.00303166
0.00182748
-0.00275997
0.00170323
-0.00236485
0.00159446
-0.00190591
0.00152944
-0.0014395
0.00150412
-0.00103736
0.00144107
-0.000776565
0.00128138
-0.000654888
0.00107212
-0.000571234
0.000894393
-0.000471593
0.000767259
-0.000372915
0.000696723
-0.000290627
0.000687963
-0.000226541
0.000729044
-0.000191881
0.000792603
-0.000188794
0.000869051
-0.000194995
0.000953412
-0.000185883
0.00103877
-0.000139781
0.0011085
-3.46297e-05
0.0011449
0.000130279
0.001151
0.000331361
0.00113574
0.000574171
0.00115289
0.000895746
0.00125752
0.00129178
0.00144776
0.00182301
0.00193411
0.00211106
0.00219405
0.00126172
0.00180894
0.000837628
0.000336441
-0.000681022
0.0117274
-0.000563162
0.00438701
0.000632935
0.00116378
0.00150973
0.000782401
0.00224765
0.000340992
0.00297896
-0.000521902
0.00353757
-0.00143727
0.00383112
-0.00213686
0.00386787
-0.00258904
0.00369292
-0.00280049
0.00336632
-0.0027951
0.00294849
-0.00261388
0.00249338
-0.00230489
0.0020489
-0.0019204
0.00165218
-0.0015092
0.00132155
-0.00110887
0.00105505
-0.000770865
0.000821134
-0.000542658
0.000585
-0.000418762
0.000363786
-0.000350025
0.000190036
-0.000297846
7.57346e-05
-0.000258615
1.94689e-05
-0.00023436
1.66111e-05
-0.00022368
5.33716e-05
-0.000228637
0.000111705
-0.000247121
0.000182762
-0.000266045
0.00026675
-0.000269864
0.000368669
-0.000241692
0.000493718
-0.000159671
0.000621224
2.78109e-06
0.000742802
0.000209792
0.000878674
0.000438306
0.00107201
0.000702422
0.00138144
0.000982347
0.00187582
0.00132865
0.00261418
0.00137271
0.00317542
0.000700489
0.00325553
0.00075753
0.00366168
0.00268805
0.00956388
0.00341946
0.00365558
0.00393979
0.000643431
0.00477203
-4.98422e-05
0.00563984
-0.000526812
0.00624664
-0.00112874
0.00644898
-0.00163967
0.00628244
-0.0019704
0.00581482
-0.00212151
0.0051303
-0.00211605
0.00432003
-0.00198489
0.00346894
-0.00176283
0.00264314
-0.00147912
0.00189286
-0.00117012
0.00125112
-0.000867475
0.000723609
-0.000581357
0.000310602
-0.000357857
-6.50424e-06
-0.000225552
-0.000252615
-0.000172652
-0.000437557
-0.000165081
-0.000567424
-0.000167976
-0.000649538
-0.000176496
-0.000692983
-0.000190908
-0.000706067
-0.000210588
-0.000699008
-0.000235686
-0.000682183
-0.000263937
-0.000659871
-0.000288347
-0.00062938
-0.000300345
-0.000580369
-0.000290693
-0.000491566
-0.000248465
-0.000331073
-0.000157703
-0.000128949
7.6775e-06
0.000100792
0.000208575
0.000394311
0.000408912
0.000768815
0.000607852
0.00128701
0.000810466
0.00184728
0.000812444
0.0019723
0.000575474
0.00092983
0.00180001
0.00487739
0.010143
0.0137933
0.0129044
0.00153227
0.0122994
0.000555202
0.0116546
0.000117888
0.0107654
-0.000239712
0.0096092
-0.000483577
0.00827921
-0.000640549
0.0068672
-0.0007096
0.00545018
-0.000699106
0.00410004
-0.00063479
0.00287744
-0.000540248
0.00181196
-0.000413646
0.000920021
-0.000278175
0.0002007
-0.000148144
-0.000340004
-4.06398e-05
-0.000705787
7.9346e-06
-0.000942576
1.1244e-05
-0.00110474
-1.048e-05
-0.00122604
-4.37781e-05
-0.00131732
-7.66841e-05
-0.0013871
-0.000106709
-0.0014429
-0.0001351
-0.0014917
-0.000161772
-0.00154095
-0.000186424
-0.00159822
-0.000206657
-0.00166971
-0.000216845
-0.00176137
-0.000208673
-0.00188053
-0.000171528
-0.00203635
-9.26246e-05
-0.00223401
3.99658e-05
-0.00245772
0.000231395
-0.00274464
0.000495509
-0.00318595
0.000850227
-0.00387575
0.00129766
-0.00487894
0.00181367
-0.00631904
0.00225255
-0.00812906
0.00238551
-0.0078752
0.00154617
-0.00268158
0.00436665
0.00338692
0.00346912
0.00145231
0.00389261
-0.000305993
0.00392908
-0.000276339
0.00357245
-0.000126985
0.00299713
-6.52115e-05
0.00229189
-4.32615e-06
0.00152161
7.1232e-05
0.000750632
0.000136238
3.03297e-05
0.000180106
-0.000583758
0.000200488
-0.00105592
0.000194011
-0.00138811
0.000184067
-0.00159473
0.000165992
-0.00172036
0.000133578
-0.00180531
9.62028e-05
-0.00187425
5.84676e-05
-0.00194042
2.2412e-05
-0.00200684
-1.02583e-05
-0.00207344
-4.00939e-05
-0.00214328
-6.52422e-05
-0.00222049
-8.45488e-05
-0.00230847
-9.84373e-05
-0.00240936
-0.000105757
-0.00252294
-0.00010325
-0.00264594
-8.56611e-05
-0.00277102
-4.64319e-05
-0.00288516
2.1523e-05
-0.00297912
0.000133944
-0.00305496
0.000307242
-0.00312053
0.000561089
-0.00318184
0.000911548
-0.00323766
0.0013535
-0.00323652
0.00181254
-0.00308
0.00209605
-0.00220157
0.0015071
-0.000345722
-0.000309671
-0.00294392
-0.000730401
0.00420275
-0.000198855
0.000920551
-0.000782854
0.000277881
-0.00120054
0.000141321
-0.00148283
0.00015533
-0.00173427
0.000186274
-0.00196027
0.000221727
-0.00214492
0.00025592
-0.00229053
0.000281881
-0.00239754
0.000287153
-0.00246483
0.000267805
-0.00249997
0.000229172
-0.00250214
0.000186252
-0.00248034
0.000144207
-0.00245245
0.000105709
-0.00243059
7.43495e-05
-0.00242123
4.91301e-05
-0.00242631
2.75001e-05
-0.00244434
7.79275e-06
-0.0024734
-1.10189e-05
-0.00251342
-2.52084e-05
-0.00256303
-3.49299e-05
-0.0026207
-4.07437e-05
-0.00268423
-4.22141e-05
-0.00274979
-3.76809e-05
-0.00281109
-2.43408e-05
-0.00285955
2.0366e-06
-0.00288234
4.43272e-05
-0.00286003
0.000111646
-0.00277004
0.000217268
-0.00258232
0.000373376
-0.00226963
0.000598875
-0.00182146
0.000905334
-0.00120551
0.0011966
-0.00010868
0.000999232
0.00179863
-0.000400195
0.00345987
-0.00197091
0.000606676
-0.00769194
-0.0109227
-0.0066642
-0.00571562
-0.00541898
-0.00526291
-0.00509543
-0.0048989
-0.00466832
-0.00440455
-0.0041155
-0.00382158
-0.00354716
-0.00331132
-0.00311822
-0.00296697
-0.00285405
-0.00277239
-0.00271591
-0.0026811
-0.00266606
-0.00266994
-0.00268814
-0.00271622
-0.00275027
-0.00278597
-0.00281733
-0.00283554
-0.00282758
-0.00277755
-0.00266043
-0.00243793
-0.00205958
-0.00145601
-0.000546281
0.000654344
0.00165737
0.00126111
-0.000706815
)
;

boundaryField
{
    floor
    {
        type            calculated;
        value           nonuniform List<scalar> 
29
(
0
0
0
0
0
0
0
0
0
0
0
0
0
0
0
0
0
0
0
0
-4.77546e-06
-1.2032e-05
-1.81561e-05
-2.37455e-05
-1.79512e-06
-3.42515e-06
-9.59745e-06
-9.87262e-06
-9.19122e-06
)
;
    }
    ceiling
    {
        type            calculated;
        value           nonuniform List<scalar> 
43
(
-5.97685e-05
-5.75445e-05
-5.57516e-05
-2.79963e-05
-1.87163e-05
-1.47078e-05
-1.21202e-05
-1.02225e-05
-8.82834e-06
-7.82924e-06
-7.14609e-06
-6.74063e-06
-6.59197e-06
-6.65233e-06
-6.82848e-06
-7.02958e-06
-7.19494e-06
-7.29608e-06
-7.3286e-06
-7.30184e-06
-7.22922e-06
-7.12167e-06
-6.98977e-06
-6.83999e-06
-6.67568e-06
-6.49923e-06
-6.31231e-06
-6.11574e-06
-5.90912e-06
-5.69006e-06
-5.4597e-06
-5.21646e-06
-4.95815e-06
-4.68131e-06
-4.38076e-06
-4.01425e-06
-3.77788e-06
-3.92338e-06
-2.96718e-06
-1.00516e-06
7.93399e-06
5.29686e-06
-8.5571e-05
)
;
    }
    sWall
    {
        type            calculated;
        value           uniform -0.000283103;
    }
    nWall
    {
        type            calculated;
        value           nonuniform List<scalar> 6(-5.27712e-05 -6.31999e-05 -6.97011e-05 -8.33661e-05 -9.07047e-05 -9.91191e-05);
    }
    sideWalls
    {
        type            empty;
        value           nonuniform 0();
    }
    glass1
    {
        type            calculated;
        value           nonuniform List<scalar> 9(-5.89628e-05 -0.000158462 -0.000241969 -0.000312789 -0.000372658 -0.00042296 -0.00046868 -0.000524531 -0.000587103);
    }
    glass2
    {
        type            calculated;
        value           nonuniform List<scalar> 2(-0.000285873 -0.000316221);
    }
    sun
    {
        type            calculated;
        value           uniform 0;
    }
    heatsource1
    {
        type            calculated;
        value           nonuniform List<scalar> 3(2.04747e-07 2.04645e-07 2.04661e-07);
    }
    heatsource2
    {
        type            calculated;
        value           nonuniform List<scalar> 4(5.12744e-08 5.14114e-08 0 0);
    }
    Table_master
    {
        type            calculated;
        value           nonuniform List<scalar> 9(-1.53576e-07 -1.53643e-07 -1.53667e-07 -1.53684e-07 -1.53695e-07 -1.53702e-07 -1.53702e-07 -1.53693e-07 -1.53657e-07);
    }
    Table_slave
    {
        type            calculated;
        value           nonuniform List<scalar> 9(1.53446e-07 1.53466e-07 1.53448e-07 1.53435e-07 1.53433e-07 1.53436e-07 1.53456e-07 1.53504e-07 1.53589e-07);
    }
    inlet
    {
        type            calculated;
        value           uniform -0.00622143;
    }
    outlet
    {
        type            calculated;
        value           nonuniform List<scalar> 2(0.00803481 0.0032883);
    }
}


// ************************************************************************* //
