// -*- C++ -*-
// File generated by PyFoam - sorry for the ugliness

FoamFile
{
 version 2.0;
 format ascii;
 class volVectorField;
 location "1900";
 object U;
}

dimensions [ 0 1 -1 0 0 0 0 ];

internalField nonuniform List<vector> 459
(
  (0.0332564 0.0882339 0)
  (-0.171673 0.0265037 0)
  (-0.196897 0.0178802 0)
  (-0.227631 0.0119016 0)
  (-0.249269 0.00536425 0)
  (-0.260852 -0.00147132 0)
  (-0.26093 -0.00861348 0)
  (-0.24885 -0.0160229 0)
  (-0.22555 -0.0229586 0)
  (-0.193077 -0.0283254 0)
  (-0.154864 -0.0312983 0)
  (-0.114676 -0.0315941 0)
  (-0.0760691 -0.0295648 0)
  (-0.0440909 -0.0266364 0)
  (-0.0337909 -0.024581 0)
  (-0.00295965 0.00867548 0)
  (-0.0278963 -0.019638 0)
  (-0.00214586 -0.029629 0)
  (0.022218 -0.0220939 0)
  (0.0396685 -0.0149231 0)
  (0.0528897 -0.00956259 0)
  (0.0608392 -0.00569073 0)
  (0.064825 -0.00366373 0)
  (0.0666029 -0.0027961 0)
  (0.0675036 -0.00237952 0)
  (0.0680647 -0.00210709 0)
  (0.0683595 -0.00188316 0)
  (0.0683189 -0.00161479 0)
  (0.0677254 -0.00112147 0)
  (0.065986 -4.76761e-06 0)
  (0.0618408 0.00229052 0)
  (0.0539258 0.00469763 0)
  (0.0466786 0.00666805 0)
  (-0.0142103 0.0229782 0)
  (0.209546 0.18026 0)
  (-0.158694 0.0697239 0)
  (-0.157364 0.0529846 0)
  (-0.188778 0.0403813 0)
  (-0.209988 0.0262492 0)
  (-0.221652 0.0106555 0)
  (-0.222268 -0.00649157 0)
  (-0.211169 -0.0242962 0)
  (-0.189864 -0.0403162 0)
  (-0.160722 -0.0521255 0)
  (-0.127211 -0.0581784 0)
  (-0.0927767 -0.0582122 0)
  (-0.060556 -0.0528309 0)
  (-0.0339693 -0.0435844 0)
  (-0.0172885 -0.0323103 0)
  (-0.00362506 -0.0143023 0)
  (-0.00412997 0.017211 0)
  (0.0723333 0.0364801 0)
  (0.0317057 -0.0208178 0)
  (0.0394871 -0.0341121 0)
  (0.0515884 -0.0294419 0)
  (0.0610833 -0.0205424 0)
  (0.0675575 -0.0122578 0)
  (0.070225 -0.00508714 0)
  (0.0706416 -0.0011049 0)
  (0.070537 0.000562761 0)
  (0.0706184 0.00130831 0)
  (0.0707997 0.00176122 0)
  (0.0709287 0.00214174 0)
  (0.0709566 0.00263191 0)
  (0.0708279 0.00359477 0)
  (0.0699764 0.00599109 0)
  (0.0658128 0.0126437 0)
  (0.0553582 0.0181792 0)
  (0.0506001 0.0218612 0)
  (-0.0552189 0.0495121 0)
  (0.370683 0.269204 0)
  (-0.173687 0.110421 0)
  (-0.117619 0.0852079 0)
  (-0.14747 0.0629694 0)
  (-0.165946 0.0398247 0)
  (-0.176233 0.0146408 0)
  (-0.175818 -0.0129971 0)
  (-0.163874 -0.0411583 0)
  (-0.143073 -0.0655355 0)
  (-0.116394 -0.0824829 0)
  (-0.0873418 -0.0901493 0)
  (-0.0586029 -0.0888507 0)
  (-0.0322209 -0.0796869 0)
  (-0.0102842 -0.0645099 0)
  (0.00614977 -0.0438062 0)
  (0.0174711 -0.0182325 0)
  (0.0233092 0.0186747 0)
  (0.120508 -0.0376377 0)
  (0.0795734 -0.0450434 0)
  (0.0739024 -0.0428405 0)
  (0.0760056 -0.0352397 0)
  (0.0776358 -0.0256199 0)
  (0.0787322 -0.0172953 0)
  (0.0770988 -0.0137636 0)
  (0.072505 -0.00963498 0)
  (0.0692911 -0.007386 0)
  (0.0678684 -0.00609421 0)
  (0.0672759 -0.00526473 0)
  (0.0669968 -0.00468203 0)
  (0.0670521 -0.00413551 0)
  (0.0679421 -0.00323864 0)
  (0.0709465 8.62019e-05 0)
  (0.0686011 0.0182154 0)
  (0.0539176 0.0308184 0)
  (0.0571745 0.0390811 0)
  (-0.0918477 0.0766957 0)
  (0.515455 0.340491 0)
  (-0.206578 0.146323 0)
  (-0.076433 0.112243 0)
  (-0.103659 0.0816931 0)
  (-0.116342 0.0517125 0)
  (-0.122307 0.0183408 0)
  (-0.117155 -0.0196914 0)
  (-0.102086 -0.0581472 0)
  (-0.0814432 -0.0895461 0)
  (-0.0583474 -0.109849 0)
  (-0.0357747 -0.117688 0)
  (-0.0148871 -0.114623 0)
  (0.00395879 -0.101946 0)
  (0.0196189 -0.0825389 0)
  (0.0332334 -0.0585502 0)
  (0.0481602 -0.0313069 0)
  (0.070881 -0.00126278 0)
  (0.103527 0.0127138 0)
  (0.1096 -0.0295023 0)
  (0.0940323 -0.0391235 0)
  (0.0846454 -0.0365415 0)
  (0.0800417 -0.030846 0)
  (0.0769394 -0.0233632 0)
  (0.0753728 -0.0142589 0)
  (0.0774594 -0.00847547 0)
  (0.0825868 -0.00650053 0)
  (0.0867993 -0.0053488 0)
  (0.0895448 -0.00443914 0)
  (0.09106 -0.00333833 0)
  (0.0906927 -0.00177586 0)
  (0.0874098 0.000446663 0)
  (0.0799665 0.00363099 0)
  (0.0653507 0.00838452 0)
  (0.053037 0.0298208 0)
  (0.0403871 0.0473337 0)
  (0.0606686 0.0605459 0)
  (-0.134548 0.100006 0)
  (0.639571 0.395564 0)
  (-0.247071 0.175519 0)
  (-0.0367166 0.127185 0)
  (-0.057914 0.0917303 0)
  (-0.0620039 0.0576344 0)
  (-0.0595964 0.0177163 0)
  (-0.0428517 -0.0304159 0)
  (-0.0235546 -0.0763743 0)
  (-0.0048872 -0.110595 0)
  (0.0116497 -0.130493 0)
  (0.0243332 -0.135643 0)
  (0.0343382 -0.129702 0)
  (0.0420578 -0.115043 0)
  (0.0483767 -0.0943301 0)
  (0.0545203 -0.0702166 0)
  (0.0624109 -0.04583 0)
  (0.0747684 -0.027156 0)
  (0.0856753 -0.0259041 0)
  (0.0867614 -0.0345093 0)
  (0.0796544 -0.0347839 0)
  (0.0709608 -0.0306922 0)
  (0.0642487 -0.0255901 0)
  (0.0595106 -0.0198784 0)
  (0.0570355 -0.0136078 0)
  (0.0573796 -0.00771612 0)
  (0.0601225 -0.00489027 0)
  (0.0631022 -0.00372792 0)
  (0.0658563 -0.00264663 0)
  (0.0682264 -0.000617046 0)
  (0.0697299 0.0028272 0)
  (0.069152 0.00771788 0)
  (0.0659781 0.0142065 0)
  (0.0595174 0.0230333 0)
  (0.051842 0.0394705 0)
  (0.0402925 0.0591291 0)
  (0.0682804 0.0805728 0)
  (-0.0346513 0.11259 0)
  (0.0473385 0.0270343 0)
  (-0.0691367 -0.0379078 0)
  (-0.285932 -0.061448 0)
  (0.728867 0.441224 0)
  (-0.286277 0.194709 0)
  (-0.00691024 0.1214 0)
  (-0.00962643 0.08958 0)
  (-0.000681524 0.054191 0)
  (0.0195338 0.0052995 0)
  (0.0492781 -0.0501948 0)
  (0.0690306 -0.0942804 0)
  (0.081352 -0.123875 0)
  (0.0869451 -0.138991 0)
  (0.0871857 -0.140991 0)
  (0.0838585 -0.132466 0)
  (0.078465 -0.116216 0)
  (0.0725909 -0.0951561 0)
  (0.0676867 -0.0720355 0)
  (0.0650277 -0.0498699 0)
  (0.0653497 -0.0327343 0)
  (0.0655484 -0.0256596 0)
  (0.0616593 -0.02547 0)
  (0.0538702 -0.0251092 0)
  (0.0452996 -0.0227365 0)
  (0.0383802 -0.0194707 0)
  (0.0336276 -0.0158557 0)
  (0.0312964 -0.0120525 0)
  (0.0314597 -0.00885039 0)
  (0.0336131 -0.00761522 0)
  (0.0366564 -0.00729175 0)
  (0.0401402 -0.00653522 0)
  (0.0438282 -0.00429163 0)
  (0.0475396 0.000270974 0)
  (0.050333 0.00713241 0)
  (0.0514939 0.015914 0)
  (0.0513654 0.0269603 0)
  (0.0515091 0.0422298 0)
  (0.0491488 0.0613621 0)
  (0.0764302 0.0861675 0)
  (0.048805 0.105373 0)
  (0.0974201 0.0698657 0)
  (0.122178 0.0453572 0)
  (-0.138545 -0.0101314 0)
  (0.785681 0.482976 0)
  (-0.304099 0.179138 0)
  (0.0240547 0.0651825 0)
  (0.0578013 0.0550158 0)
  (0.0840513 0.029194 0)
  (0.128091 -0.0247941 0)
  (0.156736 -0.0730873 0)
  (0.170559 -0.107425 0)
  (0.171573 -0.127702 0)
  (0.16246 -0.135296 0)
  (0.146379 -0.132048 0)
  (0.126436 -0.120399 0)
  (0.105323 -0.103115 0)
  (0.0852795 -0.0828523 0)
  (0.0679017 -0.061819 0)
  (0.0541695 -0.0424256 0)
  (0.0443138 -0.0276094 0)
  (0.0367132 -0.0197937 0)
  (0.0290797 -0.0174377 0)
  (0.0209013 -0.0167 0)
  (0.013321 -0.0155275 0)
  (0.0074261 -0.0140316 0)
  (0.00353416 -0.0124898 0)
  (0.00176943 -0.0110316 0)
  (0.00207007 -0.0101282 0)
  (0.0039286 -0.0102709 0)
  (0.00664591 -0.0107495 0)
  (0.00995797 -0.0106013 0)
  (0.0138971 -0.00889508 0)
  (0.0185923 -0.00456312 0)
  (0.0253026 0.0032763 0)
  (0.0309286 0.0129257 0)
  (0.0364406 0.0240474 0)
  (0.0437465 0.0375639 0)
  (0.0510986 0.0531637 0)
  (0.0762398 0.0733474 0)
  (0.0885357 0.0807313 0)
  (0.125284 0.052481 0)
  (0.167854 0.0428902 0)
  (-0.0321825 0.0966714 0)
  (0.893623 0.482398 0)
  (-0.0561896 0.157515 0)
  (0.119532 -0.0236484 0)
  (0.207932 -0.0596972 0)
  (0.253857 -0.073089 0)
  (0.278798 -0.0897261 0)
  (0.287597 -0.10511 0)
  (0.279705 -0.114846 0)
  (0.257315 -0.117795 0)
  (0.22469 -0.114169 0)
  (0.186546 -0.104813 0)
  (0.14699 -0.090975 0)
  (0.109317 -0.0744914 0)
  (0.0758425 -0.0571538 0)
  (0.0477852 -0.0401871 0)
  (0.0259013 -0.0253057 0)
  (0.01029 -0.0148505 0)
  (-0.000568373 -0.00984164 0)
  (-0.00866664 -0.00884013 0)
  (-0.0154383 -0.00914202 0)
  (-0.0210689 -0.00943579 0)
  (-0.0253547 -0.00963886 0)
  (-0.0282722 -0.0098735 0)
  (-0.0298492 -0.0102553 0)
  (-0.0302384 -0.0109748 0)
  (-0.0298325 -0.0120884 0)
  (-0.0290301 -0.0132291 0)
  (-0.0279301 -0.0139034 0)
  (-0.0263443 -0.0135991 0)
  (-0.0238208 -0.0117061 0)
  (-0.0191943 -0.00742982 0)
  (-0.0086884 -0.000120481 0)
  (-0.000386758 0.00861185 0)
  (0.0108325 0.0172074 0)
  (0.0224191 0.0249063 0)
  (0.0437392 0.0336926 0)
  (0.0623787 0.0259275 0)
  (0.0813733 -0.00553916 0)
  (0.142974 0.0447646 0)
  (-0.454935 0.221881 0)
  (1.04589 0.426873 0)
  (0.495426 0.278711 0)
  (0.514581 0.172856 0)
  (0.549682 0.0947019 0)
  (0.52969 0.040817 0)
  (0.481977 -0.0018557 0)
  (0.426826 -0.0330476 0)
  (0.36653 -0.0520179 0)
  (0.301926 -0.0600748 0)
  (0.2364 -0.0597411 0)
  (0.17405 -0.0537204 0)
  (0.117784 -0.0440143 0)
  (0.0698529 -0.0327885 0)
  (0.0307529 -0.0217211 0)
  (-0.000251577 -0.0116754 0)
  (-0.0214293 -0.00487939 0)
  (-0.0335397 -0.00202852 0)
  (-0.0409796 -0.00161863 0)
  (-0.0463051 -0.00255283 0)
  (-0.0508543 -0.00390553 0)
  (-0.0548354 -0.0052388 0)
  (-0.0582464 -0.00652157 0)
  (-0.0611309 -0.00778491 0)
  (-0.0636017 -0.00905798 0)
  (-0.0658736 -0.0103609 0)
  (-0.0682803 -0.0116093 0)
  (-0.0711653 -0.0125213 0)
  (-0.0748175 -0.0126867 0)
  (-0.0795581 -0.0115858 0)
  (-0.0858795 -0.00854888 0)
  (-0.0944851 -0.00277168 0)
  (-0.104983 0.00625982 0)
  (-0.115917 0.0181645 0)
  (-0.133207 0.0332787 0)
  (-0.16053 0.0514048 0)
  (-0.200297 0.0704697 0)
  (-0.256472 0.0851403 0)
  (-0.319795 0.092443 0)
  (-0.391382 0.093116 0)
  (-0.660036 0.0876829 0)
  (-0.180456 -0.0205743 0)
  (0.100293 -0.0355843 0)
  (0.177142 -0.0550531 0)
  (0.164247 -0.0475702 0)
  (0.145077 -0.0344722 0)
  (0.12105 -0.0225814 0)
  (0.0891866 -0.0124432 0)
  (0.0534488 -0.00454571 0)
  (0.0186553 0.000861499 0)
  (-0.0141705 0.00439593 0)
  (-0.0378531 0.00557967 0)
  (-0.0551176 0.00555418 0)
  (-0.0662113 0.00448289 0)
  (-0.0720969 0.00232243 0)
  (-0.0754357 -0.000253862 0)
  (-0.0778076 -0.00289998 0)
  (-0.0800237 -0.00556267 0)
  (-0.0825261 -0.00799786 0)
  (-0.085431 -0.0099137 0)
  (-0.0885096 -0.0113599 0)
  (-0.0917078 -0.012411 0)
  (-0.0951457 -0.0131151 0)
  (-0.0989891 -0.0134935 0)
  (-0.103401 -0.0134652 0)
  (-0.108465 -0.0127878 0)
  (-0.114118 -0.0110668 0)
  (-0.120109 -0.00779721 0)
  (-0.125963 -0.00242594 0)
  (-0.130951 0.00539782 0)
  (-0.134703 0.0160337 0)
  (-0.137686 0.0304871 0)
  (-0.140482 0.0492195 0)
  (-0.144216 0.0711813 0)
  (-0.149518 0.0917476 0)
  (-0.152879 0.0994574 0)
  (-0.13511 0.0722993 0)
  (-0.0822353 -0.0314779 0)
  (-0.289141 -0.225349 0)
  (0.035733 0.198053 0)
  (0.0135482 0.0638239 0)
  (-0.0321896 0.0118596 0)
  (-0.055733 0.0110447 0)
  (-0.0739331 0.017095 0)
  (-0.087354 0.0216473 0)
  (-0.0963934 0.0254051 0)
  (-0.103203 0.0285479 0)
  (-0.108103 0.0304983 0)
  (-0.111361 0.0309972 0)
  (-0.112765 0.0305341 0)
  (-0.112826 0.0303212 0)
  (-0.111779 0.0305438 0)
  (-0.110204 0.0312438 0)
  (-0.108727 0.0325987 0)
  (-0.10763 0.0344448 0)
  (-0.107059 0.0362886 0)
  (-0.107059 0.037552 0)
  (-0.107539 0.0376447 0)
  (-0.108514 0.0366148 0)
  (-0.109942 0.035126 0)
  (-0.111797 0.0333505 0)
  (-0.114043 0.0313852 0)
  (-0.116625 0.0293222 0)
  (-0.119431 0.0272683 0)
  (-0.122279 0.0253357 0)
  (-0.124869 0.0236108 0)
  (-0.12665 0.0223333 0)
  (-0.12671 0.0229331 0)
  (-0.123731 0.0267078 0)
  (-0.1161 0.0348242 0)
  (-0.102653 0.0483851 0)
  (-0.0837434 0.0671816 0)
  (-0.0606548 0.0862535 0)
  (-0.0364337 0.0971802 0)
  (0.00693641 0.079722 0)
  (0.144611 0.0035021 0)
  (-0.207839 -0.138168 0)
  (-0.0921969 -0.346923 0)
  (-0.447096 -0.138555 0)
  (-0.333843 0.0444087 0)
  (-0.291941 -0.0443407 0)
  (-0.251101 -0.0509297 0)
  (-0.239802 -0.0436242 0)
  (-0.231817 -0.0366805 0)
  (-0.222559 -0.0323394 0)
  (-0.210989 -0.0302137 0)
  (-0.197386 -0.0304228 0)
  (-0.182729 -0.0335111 0)
  (-0.16843 -0.0394892 0)
  (-0.155723 -0.0475871 0)
  (-0.145229 -0.0565195 0)
  (-0.137034 -0.0657119 0)
  (-0.130973 -0.0748709 0)
  (-0.126649 -0.083571 0)
  (-0.1236 -0.0913388 0)
  (-0.121483 -0.0976923 0)
  (-0.120119 -0.102162 0)
  (-0.119484 -0.104432 0)
  (-0.119587 -0.104554 0)
  (-0.120355 -0.10326 0)
  (-0.121611 -0.100785 0)
  (-0.123188 -0.0972963 0)
  (-0.124894 -0.0928773 0)
  (-0.126478 -0.087512 0)
  (-0.127587 -0.0810659 0)
  (-0.127766 -0.073257 0)
  (-0.12641 -0.0638774 0)
  (-0.122385 -0.0535277 0)
  (-0.11353 -0.042027 0)
  (-0.0968902 -0.028849 0)
  (-0.0703451 -0.0130092 0)
  (-0.035306 0.00623574 0)
  (0.0239225 0.0309827 0)
  (0.0745222 0.0318026 0)
  (0.123135 0.0100727 0)
  (0.176691 -0.0307869 0)
  (-0.178338 -0.0990249 0)
)
;

boundaryField
{
  floor
  {
    type noSlip;
  }
  ceiling
  {
    type noSlip;
  }
  sWall
  {
    type noSlip;
  }
  nWall
  {
    type noSlip;
  }
  sideWalls
  {
    type empty;
  }
  glass1
  {
    type noSlip;
  }
  glass2
  {
    type noSlip;
  }
  sun
  {
    type noSlip;
  }
  heatsource1
  {
    type noSlip;
  }
  heatsource2
  {
    type noSlip;
  }
  Table_master
  {
    type noSlip;
  }
  Table_slave
  {
    type noSlip;
  }
  inlet
  {
    type fixedValue;
    value uniform (0.277164 -0.114805 0);
  }
  outlet
  {
    type zeroGradient;
  }
} 	// ************************************************************************* //

