/*--------------------------------*- C++ -*----------------------------------*\
  =========                 |
  \\      /  F ield         | OpenFOAM: The Open Source CFD Toolbox
   \\    /   O peration     | Website:  https://openfoam.org
    \\  /    A nd           | Version:  6
     \\/     M anipulation  |
\*---------------------------------------------------------------------------*/
FoamFile
{
    version     2.0;
    format      ascii;
    class       volScalarField;
    location    "1600";
    object      epsilon;
}
// * * * * * * * * * * * * * * * * * * * * * * * * * * * * * * * * * * * * * //

dimensions      [0 2 -3 0 0 0 0];

internalField   nonuniform List<scalar> 
459
(
0.000523931
0.000688986
0.000730766
0.000844782
0.000961901
0.00108261
0.00121285
0.00134046
0.00143044
0.00146109
0.00141652
0.00129365
0.00110442
0.000880277
0.000665065
4.87137e-05
8.60465e-05
0.000122788
0.000122195
0.000110591
9.60436e-05
7.92892e-05
6.46596e-05
5.30489e-05
4.39906e-05
3.68898e-05
3.1264e-05
2.677e-05
2.31232e-05
2.00716e-05
1.73988e-05
1.48996e-05
1.34256e-05
1.02977e-05
0.00131702
0.00185771
0.000652456
0.000635331
0.000671575
0.000729331
0.000812255
0.000913152
0.00100168
0.00105003
0.00103928
0.000966243
0.000840708
0.000690397
0.000575634
0.000722702
0.000145076
5.82631e-05
0.000138624
0.000148105
0.00013541
0.000115612
9.69755e-05
8.75624e-05
7.0864e-05
5.6117e-05
4.44515e-05
3.54663e-05
2.85741e-05
2.32879e-05
1.92387e-05
1.62525e-05
1.4438e-05
1.36862e-05
3.47937e-05
2.37417e-05
0.00238104
0.00447412
0.000816755
0.000615387
0.000653454
0.000745632
0.000877369
0.0010297
0.00115623
0.0012226
0.00121476
0.00113751
0.00100293
0.000844626
0.000700421
0.000634233
0.000782358
0.000421986
0.000309526
0.000236684
0.000184354
0.000145886
0.000123146
0.000226761
0.000155653
0.000110656
8.14311e-05
6.18508e-05
4.83269e-05
3.87443e-05
3.18503e-05
2.69262e-05
2.0411e-05
1.71775e-05
6.5738e-05
3.75821e-05
0.00381889
0.00917559
0.00130566
0.000644901
0.000663964
0.000801941
0.00101561
0.00124105
0.00139653
0.00145953
0.00143345
0.00133294
0.00116607
0.000977112
0.000807708
0.000694733
0.00067697
0.00128549
0.000730984
0.000442297
0.000297396
0.000214783
0.000163653
0.000140076
0.000322443
0.00024302
0.00019492
0.000162555
0.00013773
0.0001175
9.99799e-05
8.35925e-05
6.70149e-05
3.93035e-05
2.61698e-05
0.000111554
5.08178e-05
0.00577536
0.0161869
0.00258946
0.000822254
0.000742726
0.000947745
0.00133368
0.00162682
0.00176764
0.00178898
0.00171892
0.00157115
0.00135926
0.00111474
0.000876713
0.000679397
0.000543531
0.000488813
0.000399222
0.000315382
0.00024745
0.000194943
0.000155626
0.000129642
0.000124989
0.000115941
0.00010688
9.78546e-05
8.83935e-05
7.86893e-05
6.92453e-05
6.04002e-05
5.22619e-05
4.12563e-05
3.1758e-05
7.90461e-05
5.67651e-05
9.1758e-05
0.000156885
0.000220247
0.00846761
0.0238633
0.0057838
0.00169766
0.00127376
0.00163745
0.00214091
0.00232791
0.00234162
0.00226503
0.00212161
0.00190478
0.00161783
0.00129002
0.000968801
0.000700645
0.000512211
0.000401975
0.000331001
0.000272585
0.000220738
0.000177826
0.000145216
0.000123553
0.000113161
0.000108556
0.000105478
0.000101575
9.55439e-05
8.64252e-05
7.4991e-05
6.35851e-05
5.33139e-05
4.41682e-05
3.87438e-05
5.69747e-05
5.84672e-05
7.07228e-05
0.000292725
0.000253801
0.0114644
0.0283809
0.0116659
0.00538649
0.00403145
0.00402183
0.00380208
0.00350424
0.00321628
0.00295422
0.00268148
0.0023502
0.00194635
0.00150175
0.00107641
0.000732642
0.000500888
0.000367872
0.000291547
0.000236711
0.000191483
0.000156306
0.000132086
0.00011856
0.000114363
0.000115734
0.000118824
0.000121606
0.000122631
0.000119877
0.000109031
9.58568e-05
8.30101e-05
7.20271e-05
6.82053e-05
7.95006e-05
0.000103515
0.00017468
0.000410686
0.00038614
0.0120426
0.0296988
0.0171402
0.0122678
0.00964859
0.00751994
0.00599605
0.00498592
0.00433013
0.00386028
0.00342321
0.00291514
0.00232312
0.0017028
0.0011357
0.000708475
0.000446599
0.000307743
0.000235876
0.000189836
0.000156164
0.000133415
0.000120748
0.00011676
0.000119623
0.00012713
0.000137644
0.000150713
0.000166385
0.000184406
0.000203211
0.000211258
0.00022167
0.000244733
0.000293585
0.0004546
0.000882173
0.00178536
0.00528768
0.00142751
0.0110502
0.0181014
0.0145425
0.0111452
0.00876402
0.00727489
0.00638634
0.00585638
0.00546753
0.00502338
0.004389
0.00353433
0.00259141
0.0017056
0.000968652
0.000523062
0.00032357
0.000228819
0.000177777
0.000145769
0.000125233
0.000113853
0.000110039
0.000112298
0.00011938
0.000130517
0.00014572
0.000165894
0.000192744
0.000228797
0.000277508
0.000344181
0.000436912
0.000580002
0.000790626
0.00107508
0.00139534
0.00166283
0.0018563
0.00111605
0.00369381
0.00652914
0.0083951
0.00889293
0.00888948
0.00842586
0.00743787
0.00603645
0.00443435
0.00278095
0.00167293
0.000968293
0.000549219
0.000331621
0.000226839
0.00017343
0.000142937
0.000123724
0.000111731
0.000105522
0.000104119
0.000106582
0.00011233
0.000121233
0.00013366
0.000150571
0.000173664
0.00020572
0.000251126
0.000315763
0.000406684
0.000532945
0.000696966
0.00087898
0.00102308
0.00105742
0.00093056
0.000583803
0.0036886
0.00849226
0.00849092
0.00704131
0.00609186
0.00510134
0.00401743
0.00295169
0.00200448
0.00124736
0.000755645
0.000466006
0.000307362
0.000225321
0.000182584
0.000158066
0.000141998
0.0001305
0.000122169
0.000116562
0.000113909
0.000114185
0.000117499
0.000124234
0.000135086
0.000151114
0.000173883
0.00020568
0.000249757
0.000310667
0.000394531
0.000507446
0.000649785
0.000811605
0.000932261
0.00103938
0.000799374
0.00060569
0.00265922
0.00317499
0.00358504
0.00450744
0.00400089
0.00356415
0.00322449
0.00276865
0.00222375
0.00167023
0.00117167
0.000778908
0.000512398
0.000349116
0.00025241
0.000194029
0.000157404
0.000133871
0.000119059
0.00011063
0.000107141
0.000107721
0.000111095
0.000116979
0.000125351
0.000136416
0.000150594
0.000168592
0.000191589
0.000221204
0.000258446
0.000305384
0.000364624
0.000439587
0.000533976
0.000677695
0.00072442
0.000672643
0.000546047
0.000429091
)
;

boundaryField
{
    floor
    {
        Cmu             0.09;
        kappa           0.41;
        E               9.8;
        type            epsilonWallFunction;
        value           nonuniform List<scalar> 
29
(
0.000665065
4.87137e-05
8.60465e-05
0.000122788
0.000122195
0.000110591
9.60436e-05
7.92892e-05
6.46596e-05
5.30489e-05
4.39906e-05
3.68898e-05
3.1264e-05
2.677e-05
2.31232e-05
2.00716e-05
1.73988e-05
1.48996e-05
1.34256e-05
1.02977e-05
1.02977e-05
2.37417e-05
3.75821e-05
5.08178e-05
0.000665065
4.87137e-05
5.82631e-05
0.000421986
0.00128549
)
;
    }
    ceiling
    {
        Cmu             0.09;
        kappa           0.41;
        E               9.8;
        type            epsilonWallFunction;
        value           nonuniform List<scalar> 
43
(
0.00265922
0.00317499
0.00358504
0.00450744
0.00400089
0.00356415
0.00322449
0.00276865
0.00222375
0.00167023
0.00117167
0.000778908
0.000512398
0.000349116
0.00025241
0.000194029
0.000157404
0.000133871
0.000119059
0.00011063
0.000107141
0.000107721
0.000111095
0.000116979
0.000125351
0.000136416
0.000150594
0.000168592
0.000191589
0.000221204
0.000258446
0.000305384
0.000364624
0.000439587
0.000533976
0.000677695
0.00072442
0.000672643
0.000546047
0.000429091
0.0110502
0.0181014
0.0036886
)
;
    }
    sWall
    {
        Cmu             0.09;
        kappa           0.41;
        E               9.8;
        type            epsilonWallFunction;
        value           uniform 0.00265922;
    }
    nWall
    {
        Cmu             0.09;
        kappa           0.41;
        E               9.8;
        type            epsilonWallFunction;
        value           nonuniform List<scalar> 6(0.000220247 0.000253801 0.00038614 0.000583803 0.00060569 0.000429091);
    }
    sideWalls
    {
        type            empty;
    }
    glass1
    {
        Cmu             0.09;
        kappa           0.41;
        E               9.8;
        type            epsilonWallFunction;
        value           nonuniform List<scalar> 9(0.000523931 0.00131702 0.00238104 0.00381889 0.00577536 0.00846761 0.0114644 0.0120426 0.0110502);
    }
    glass2
    {
        Cmu             0.09;
        kappa           0.41;
        E               9.8;
        type            epsilonWallFunction;
        value           nonuniform List<scalar> 2(0.00142751 0.00111605);
    }
    sun
    {
        Cmu             0.09;
        kappa           0.41;
        E               9.8;
        type            epsilonWallFunction;
        value           nonuniform List<scalar> 
14
(
0.000523931
0.000688986
0.000730766
0.000844782
0.000961901
0.00108261
0.00121285
0.00134046
0.00143044
0.00146109
0.00141652
0.00129365
0.00110442
0.000880277
)
;
    }
    heatsource1
    {
        Cmu             0.09;
        kappa           0.41;
        E               9.8;
        type            epsilonWallFunction;
        value           nonuniform List<scalar> 3(9.1758e-05 0.000156885 0.000220247);
    }
    heatsource2
    {
        Cmu             0.09;
        kappa           0.41;
        E               9.8;
        type            epsilonWallFunction;
        value           nonuniform List<scalar> 4(0.000722702 0.000145076 0.000145076 0.000782358);
    }
    Table_master
    {
        Cmu             0.09;
        kappa           0.41;
        E               9.8;
        type            epsilonWallFunction;
        value           nonuniform List<scalar> 9(0.000226761 0.000155653 0.000110656 8.14311e-05 6.18508e-05 4.83269e-05 3.87443e-05 3.18503e-05 2.69262e-05);
    }
    Table_slave
    {
        Cmu             0.09;
        kappa           0.41;
        E               9.8;
        type            epsilonWallFunction;
        value           nonuniform List<scalar> 9(0.000322443 0.00024302 0.00019492 0.000162555 0.00013773 0.0001175 9.99799e-05 8.35925e-05 6.70149e-05);
    }
    inlet
    {
        type            turbulentMixingLengthDissipationRateInlet;
        mixingLength    0.01;
        phi             phi;
        k               k;
        value           uniform 0.000101881;
    }
    outlet
    {
        type            zeroGradient;
    }
}


// ************************************************************************* //
