/*--------------------------------*- C++ -*----------------------------------*\
  =========                 |
  \\      /  F ield         | OpenFOAM: The Open Source CFD Toolbox
   \\    /   O peration     | Website:  https://openfoam.org
    \\  /    A nd           | Version:  6
     \\/     M anipulation  |
\*---------------------------------------------------------------------------*/
FoamFile
{
    version     2.0;
    format      ascii;
    class       volScalarField;
    location    "600";
    object      alphat;
}
// * * * * * * * * * * * * * * * * * * * * * * * * * * * * * * * * * * * * * //

dimensions      [1 -1 -1 0 0 0 0];

internalField   nonuniform List<scalar> 
459
(
0.00135998
0.00149441
0.00152867
0.00160585
0.00167875
0.00174904
0.00182111
0.00188063
0.0019166
0.00192187
0.00189131
0.00182087
0.00170552
0.00153728
0.0013276
0.000623365
0.000744439
0.000848192
0.000866724
0.000846266
0.000812269
0.000761664
0.000709728
0.000662554
0.000620897
0.000584224
0.000551841
0.000523051
0.000497395
0.000473902
0.000451415
0.000428338
0.000411532
0.000375172
0.00183255
0.00464718
0.00452179
0.00528064
0.0060386
0.00676765
0.00733735
0.00782155
0.0082397
0.00855494
0.00873371
0.00874393
0.00853847
0.00800285
0.00657164
0.00145129
0.000977269
0.000640592
0.00143282
0.00206547
0.0025508
0.00283328
0.00282562
0.00216579
0.00183585
0.00160811
0.00143712
0.00130351
0.00119618
0.00110758
0.00102464
0.000942565
0.000868161
0.000804161
0.000941994
0.000482084
0.00221969
0.00633612
0.00565129
0.00695092
0.00761635
0.00811722
0.00850096
0.00887064
0.0092631
0.00964934
0.00998546
0.010222
0.0102892
0.0100762
0.00928793
0.00694746
0.00153491
0.00116857
0.00181966
0.00248397
0.00312858
0.00358765
0.0034964
0.00107591
0.000944528
0.00083866
0.000753377
0.000684143
0.000627375
0.000580451
0.000541854
0.000511052
0.000554445
0.000645804
0.00107597
0.000557067
0.00258615
0.00799033
0.00572736
0.00731126
0.00780438
0.00800632
0.00818437
0.00845537
0.00882745
0.00926461
0.00971127
0.0100983
0.0103287
0.0103486
0.0100941
0.00912136
0.0056208
0.00178808
0.00221659
0.00294849
0.00376403
0.00447559
0.00492856
0.00461247
0.00121399
0.00110115
0.00101897
0.000954709
0.000899093
0.000849861
0.000802281
0.000752646
0.000695905
0.000649343
0.000672101
0.00125787
0.000614545
0.00295735
0.0100892
0.00630625
0.00716439
0.00772283
0.00776215
0.00780193
0.00802363
0.00838331
0.00885247
0.00935393
0.0097779
0.0100262
0.010067
0.00992593
0.00955629
0.0086859
0.00740155
0.00701249
0.00699102
0.0070793
0.00713897
0.00708799
0.00676399
0.00559524
0.00501421
0.00466475
0.00439488
0.0041216
0.00373875
0.00326706
0.00272314
0.00213781
0.00156977
0.00116334
0.00124231
0.000806649
0.000741713
0.000887778
0.000995498
0.00335016
0.0123838
0.00855617
0.00742598
0.00784217
0.00781402
0.0078277
0.00794559
0.00823264
0.00869972
0.00924444
0.00970439
0.00993974
0.00991007
0.00969986
0.00945764
0.00927719
0.00916287
0.0091635
0.00913321
0.00899481
0.00875229
0.00842336
0.00799622
0.00740894
0.00690023
0.00646923
0.00607337
0.00567914
0.00523342
0.00469577
0.00405586
0.00332184
0.00254724
0.0018964
0.00143579
0.00110061
0.000960499
0.00138208
0.00104532
0.00369705
0.0139291
0.0117006
0.00951194
0.00899915
0.00850436
0.00813702
0.00806548
0.00832736
0.00885491
0.00947539
0.00996902
0.0101672
0.0100397
0.0097369
0.00953452
0.00963832
0.00993578
0.0101232
0.0100471
0.00973411
0.00927199
0.0087273
0.00813563
0.00752483
0.00697193
0.00648282
0.0060395
0.00563413
0.00526783
0.00492424
0.00445334
0.00384924
0.0031562
0.00252551
0.00197932
0.00160417
0.00152497
0.00158719
0.00121221
0.00375357
0.0120365
0.010944
0.00994793
0.00901627
0.00825909
0.00791456
0.00804829
0.00859195
0.00936698
0.0101158
0.0105862
0.0106407
0.0103268
0.00992269
0.00981018
0.0100924
0.0103837
0.0103244
0.00995401
0.00936385
0.00864706
0.00788004
0.00713251
0.00646705
0.00591358
0.00545616
0.00507675
0.00477256
0.00455039
0.00441436
0.00430296
0.00395799
0.00350711
0.00313547
0.00297674
0.00316529
0.00381381
0.00475381
0.00185882
0.00364454
0.00429534
0.0046987
0.00483141
0.00516384
0.00586597
0.00691831
0.00821172
0.00954806
0.0106758
0.011351
0.0114379
0.011013
0.0103693
0.0100633
0.010013
0.0100165
0.00983575
0.00938334
0.00870013
0.00786055
0.0069673
0.00612248
0.0054045
0.00483925
0.00440316
0.00405752
0.00377418
0.00353538
0.00332778
0.00314035
0.00298102
0.00285943
0.00277997
0.00276201
0.00278892
0.00277723
0.00265463
0.00246402
0.0017096
0.00165937
0.00450296
0.00830871
0.0106851
0.012173
0.0130088
0.013255
0.0130097
0.0124123
0.0114783
0.010456
0.00968438
0.00930861
0.00905062
0.00866711
0.00809253
0.00734963
0.00650621
0.00565351
0.00487585
0.00424042
0.00376841
0.00343181
0.00318965
0.00301096
0.00287803
0.00278221
0.00272074
0.00269713
0.00270219
0.00272503
0.00276099
0.00279588
0.00279271
0.00269706
0.00249132
0.00218952
0.00137534
0.00263222
0.00863371
0.0114051
0.0120657
0.0121382
0.0117872
0.0110819
0.0101967
0.00929327
0.0084447
0.00775017
0.00725717
0.0068558
0.00639466
0.0058424
0.00522574
0.00458979
0.00399406
0.00349096
0.00310378
0.0028231
0.00262866
0.00250516
0.00243508
0.00240638
0.00241037
0.00243862
0.00249156
0.0025681
0.00266404
0.00277529
0.0028929
0.00299683
0.0030686
0.00305058
0.00304634
0.00276387
0.00139261
0.00232435
0.00246721
0.00257011
0.00274875
0.00261114
0.00250052
0.00240204
0.00226426
0.00208579
0.00187798
0.00165563
0.00144624
0.00127304
0.00114076
0.0010418
0.000966106
0.000906352
0.000858794
0.000822595
0.000798028
0.00078483
0.000781883
0.000787796
0.000800763
0.000819243
0.0008428
0.000871397
0.000905386
0.000945623
0.000992373
0.00104571
0.00110613
0.00117423
0.00125065
0.00133536
0.00144699
0.00147857
0.00144123
0.00134381
0.00123909
)
;

boundaryField
{
    floor
    {
        type            compressible::alphatWallFunction;
        Prt             0.85;
        value           nonuniform List<scalar> 
29
(
0.000187601
8.78292e-05
0.000105668
0.000120677
0.000123335
0.000120401
0.000115508
0.000108178
0.000100594
9.36467e-05
8.74622e-05
8.19756e-05
7.70955e-05
7.2727e-05
6.88088e-05
6.51987e-05
6.17219e-05
5.81311e-05
5.55007e-05
4.9762e-05
4.97613e-05
6.64594e-05
7.7887e-05
8.65171e-05
0.000187599
8.78282e-05
9.03907e-05
0.000165772
0.000249292
)
;
    }
    ceiling
    {
        type            compressible::alphatWallFunction;
        Prt             0.85;
        value           nonuniform List<scalar> 
43
(
0.000318845
0.000337094
0.000350172
0.000372903
0.000355585
0.000341571
0.000329033
0.000311387
0.000288353
0.000261257
0.000231895
0.000203842
0.000180293
0.000162063
0.000148266
0.000137611
0.00012913
0.000122333
0.00011713
0.000113583
0.000111673
0.000111246
0.000112103
0.000113979
0.000116648
0.000120039
0.00012414
0.000128994
0.000134713
0.000141321
0.000148817
0.000157254
0.000166701
0.000177228
0.000188812
0.000203951
0.000208211
0.000203176
0.000189966
0.000175647
0.000484239
0.000563144
0.000357781
)
;
    }
    sWall
    {
        type            compressible::alphatWallFunction;
        Prt             0.85;
        value           uniform 0.000317576;
    }
    nWall
    {
        type            compressible::alphatWallFunction;
        Prt             0.85;
        value           nonuniform List<scalar> 6(0.000141413 0.000148406 0.000171575 0.000193906 0.000196248 0.000175301);
    }
    sideWalls
    {
        type            empty;
    }
    glass1
    {
        type            compressible::alphatWallFunction;
        Prt             0.85;
        value           nonuniform List<scalar> 9(0.000187162 0.000249434 0.000299269 0.000345679 0.000392053 0.000440517 0.000482881 0.000489892 0.000476904);
    }
    glass2
    {
        type            compressible::alphatWallFunction;
        Prt             0.85;
        value           nonuniform List<scalar> 2(0.000256658 0.000237154);
    }
    sun
    {
        type            compressible::alphatWallFunction;
        Prt             0.85;
        value           nonuniform List<scalar> 
14
(
0.00019203
0.000210191
0.000214794
0.000225122
0.000234826
0.000244139
0.000253644
0.000261464
0.000266177
0.000266865
0.000262862
0.000253611
0.000238374
0.000215945
)
;
    }
    heatsource1
    {
        type            compressible::alphatWallFunction;
        Prt             0.85;
        value           nonuniform List<scalar> 3(0.000105425 0.000126505 0.000141785);
    }
    heatsource2
    {
        type            compressible::alphatWallFunction;
        Prt             0.85;
        value           nonuniform List<scalar> 4(0.000204559 0.000139216 0.000139214 0.000215808);
    }
    Table_master
    {
        type            compressible::alphatWallFunction;
        Prt             0.85;
        value           nonuniform List<scalar> 9(0.000153063 0.000134579 0.000119464 0.000107124 9.69821e-05 8.85733e-05 8.15521e-05 7.57242e-05 7.10362e-05);
    }
    Table_slave
    {
        type            compressible::alphatWallFunction;
        Prt             0.85;
        value           nonuniform List<scalar> 9(0.000172215 0.000156587 0.00014509 0.000136024 0.000128121 0.000121076 0.000114222 0.00010702 9.87156e-05);
    }
    inlet
    {
        type            fixedValue;
        value           uniform 1.94e-05;
    }
    outlet
    {
        type            zeroGradient;
    }
}


// ************************************************************************* //
