/*--------------------------------*- C++ -*----------------------------------*=========                 |
  \      /  F ield         | OpenFOAM: The Open Source CFD Toolbox
   \    /   O peration     | Website:  https://openfoam.org
    \  /    A nd           | Version:  6
     \/     M anipulation  |
\*---------------------------------------------------------------------------*/
FoamFile
{
    version     2.0;
    format      ascii;
    class       volScalarField;
    location    "600";
    object      PMV;
}
// * * * * * * * * * * * * * * * * * * * * * * * * * * * * * * * * * * * * * //

dimensions      [0 0 0 0 0 0 0];

internalField   nonuniform List<scalar> 
459
(
1.6118090601210087
1.391244979591891
1.362869187296217
1.3390451307226208
1.3235433805998393
1.3155406303991977
1.3154603044166144
1.3219290822384377
1.336112597198158
1.3596637796732007
1.3936652502414952
1.44082187914577
1.4972672254680943
1.5020456834728024
1.5135133743911247
1.5899396796038259
1.57609036487013
1.5698815700427045
1.5727472042183712
1.5765679522505445
1.5803885879557051
1.579554599409996
1.5744143790829948
1.5741723445632747
1.5759090203733703
1.5783447959393784
1.5807913033067233
1.5843009981961462
1.5887681339041575
1.595182247044314
1.6057443935658393
1.6224078945743337
1.628136667260081
1.642457356577231
1.569300146039261
1.4126823386960543
1.4027832878071418
1.380763875659898
1.368028646679933
1.3615130281962236
1.3612951181245176
1.3645356232348214
1.3707096235286977
1.3829103309176685
1.404082312174782
1.4367063679782772
1.4825381005236258
1.4896213882916731
1.4944000801629334
1.4958336593929555
1.4991786263615885
1.5627079054014565
1.5627172130517994
1.5588974784136593
1.5617633472057697
1.5581346309429038
1.5545378737659652
1.5537037811903818
1.5552754908808222
1.5577216464716621
1.559843072462777
1.561300813716413
1.5633316462410254
1.5655307761975144
1.567974729863497
1.57234258825329
1.5813687095346776
1.6020815556208665
1.61238187333918
1.610257301226229
1.6084687314150485
1.4154936498863568
1.439866336523089
1.4304481861071674
1.4281029371097098
1.4281162211413654
1.430080897421868
1.4282606882624966
1.4201602214294677
1.4124338919059758
1.4123069324469377
1.424840511344709
1.4535360862962299
1.4843646609357775
1.4891435111557025
1.4924886208032389
1.4958336593929555
1.462489236370845
1.4959213655432457
1.5051358905147603
1.5145746193665388
1.5273670659449519
1.5360599403386537
1.5404405564674117
1.552061429994667
1.5605030699570477
1.565947172489693
1.5690127922294266
1.5713922264256064
1.5736315669673122
1.5744022750229962
1.5716202465890141
1.5751306289283806
1.593931872561483
1.5890708672622285
1.5476215459889675
1.6826230769544743
1.421179370056528
1.4694205762997758
1.4826077249830711
1.502384714750113
1.5196772244372156
1.5290449083375441
1.5112690962144049
1.4721232028283886
1.432671689870598
1.4060116883115816
1.400290856604906
1.4167432427100752
1.4496009403654315
1.4824194997993407
1.4888799079129986
1.4554831047935823
1.4184304846143891
1.4287501958541156
1.458787651367288
1.4882888030991273
1.5150975890404705
1.5397814543091342
1.559880555577191
1.56993647647952
1.5712855629758915
1.5728669182430803
1.5762419520808268
1.5805288400407882
1.5868218488742873
1.595709085936183
1.6097468626759808
1.6338259754374065
1.6271537010297037
1.6114668803121632
1.5706566394409136
1.5052068581871623
1.7717848535187304
1.4418818349723828
1.4983506201852097
1.5336796497191132
1.591045068350999
1.650094317675868
1.6494632775262175
1.5715028517269038
1.4891186345419607
1.4241170800195655
1.3835019392631747
1.3706019744593232
1.3831250582038253
1.4134270828651028
1.4484004349547046
1.4699785386203439
1.4670387256159056
1.4637622827340322
1.4758804877260476
1.5027700600157574
1.5360230478240786
1.5677063900798085
1.596494532068632
1.620027008616901
1.6362919026131606
1.642921064488534
1.647239246312893
1.6502578491866442
1.6524504878794806
1.6528812069019645
1.6542086030184548
1.6557667509196214
1.65780615662384
1.6423750535530037
1.6137837241907236
1.5550950825045602
1.5485276561403953
1.6863625647716476
1.6784341332009938
1.5160536600137957
1.8615590789533847
1.4848133507533894
1.5519319882871552
1.5909134095286923
1.665843881426787
1.6959047560244807
1.6305976105936482
1.5429859845574507
1.4586623467431397
1.3899926417921937
1.3479857362626626
1.3384594664540876
1.3574491297329998
1.3967013731640183
1.4445220450335567
1.4856363951649556
1.509882633155334
1.527943286249758
1.5520990548370854
1.58444572142265
1.61620140956092
1.635297235778857
1.6515261896464903
1.6644121971833357
1.6753879527626208
1.683976878130392
1.691133771997735
1.6954276677272833
1.698290163663063
1.6973360073857917
1.6949505771786404
1.6897024331678228
1.68254543973058
1.6570013735935252
1.620405065552314
1.5575085728888585
1.5532489487706973
1.5738010462683139
1.5756300241843721
1.5902711803917533
1.9525026089005106
1.5810836669728847
1.705940268396607
1.6892274842855008
1.6810070356555087
1.6342086342643871
1.5600642483701328
1.4709334998051948
1.3861542608163089
1.3242232404671324
1.2965775776685038
1.305925382374092
1.34625600533129
1.4074275475424465
1.4787107653194402
1.5431341240343377
1.5703591800731749
1.595192472887285
1.6176337041592883
1.639116023014911
1.6586852705392516
1.6753879527626208
1.689225315770626
1.7001984490264526
1.708308254361793
1.7145094202203992
1.7192792790274136
1.7216641200040346
1.7216641200040346
1.7192792790274136
1.714032421436152
1.706400124544083
1.6973360073857917
1.6849311594013243
1.6443074821312105
1.5851597458584594
1.561541323351369
1.552624128305949
1.528621241672031
1.6127151954365646
2.0861411964624876
1.9046737747601372
1.860409033657944
1.7624030338123111
1.685396848291902
1.57695597213746
1.4522271147946837
1.3382164586821446
1.2579432848282541
1.2234057002940215
1.2375463478417126
1.2906636430638034
1.3716405808383294
1.471027218736622
1.5483887758187216
1.5894621420630373
1.6219304842156064
1.6472305183821203
1.667752764063416
1.685408296731707
1.7006755146897938
1.713555420314687
1.7230949961315682
1.7307259722547899
1.7359719101001625
1.739310080567462
1.740740688235983
1.740740688235983
1.739310080567462
1.7359719101001625
1.7302490542714977
1.7221410810892543
1.713555420314687
1.7025837545674656
1.690179548339531
1.6777738361462067
1.6589264749270736
1.6477493353613883
1.5881597519601487
1.504568582927132
2.2852470524002677
2.156132204598676
1.994282008911581
1.8034193830930085
1.5266341111150477
1.2831007179567713
1.1181240216112394
1.039484418684713
1.042195192468513
1.109299025912595
1.221495329462793
1.3559650355890707
1.4853204424112656
1.5550762255541188
1.6171562745410986
1.6548671521120526
1.6801596652237154
1.6987672384060328
1.713555420314687
1.7259566840706666
1.7353748590374132
1.7375764233316804
1.738344472349221
1.7386118136643018
1.7371810416541857
1.7349005545074099
1.730751342601877
1.7248260429785458
1.7167822065295406
1.7070189853001425
1.6951589964592646
1.6823610127502626
1.6699261316020715
1.6547995684915373
1.6385101054859201
1.6246702815897027
1.6160953969936347
1.6117967562618856
1.600888150280504
1.5716646623384836
-2.9807169029114005
-2.068504132970637
-1.2369732868931071
-0.40074586881555097
0.20977336254983697
0.6703383459861555
1.0404577383324025
1.264886748470137
1.4356125433467861
1.538834716700925
1.6042562464157604
1.6299349597897983
1.6545091212743903
1.6731499537346703
1.6873248879742893
1.698823539285318
1.707111283809268
1.7123668200817521
1.7156359077717558
1.716041882079902
1.7152936704944057
1.7130808869742238
1.7097885309365999
1.7052356143575897
1.7002884875364035
1.6950037784091627
1.6895810896473293
1.6842966400373964
1.680047212918975
1.676531407276706
1.6744164912171122
1.6724916052529124
1.671821895484872
1.6740627497965463
1.6851320364112514
1.7205412199378018
1.7926921469350003
1.6422597280267588
-2.5038184525069327
-1.0071464719650338
0.07037440739555371
0.6274048744743084
0.9288809269737831
1.1349981429402645
1.2883319339937915
1.4064045889872434
1.4965117586719612
1.5588486247966047
1.6018023053204176
1.6326416436571887
1.6551691777203272
1.6715798670451578
1.6830215938825568
1.6918836543409088
1.6981718044665801
1.7020013736092239
1.7040517263822466
1.7050053488185386
1.7049473723839488
1.704729102665271
1.7032729678093912
1.7020393209721967
1.7000936447670714
1.6980501393141747
1.6966488372744781
1.695312761365764
1.6955678864548729
1.698778799621392
1.7053259107118979
1.7162077991497473
1.7277553787182884
1.7380546465475863
1.7494520011207062
1.7887367831087888
1.7255366929819977
1.67913384074926
-0.7870228872716988
-0.9233923951535503
-0.807107936817013
0.452074545670588
0.955324987125779
1.1611892525170453
1.2873207881848214
1.3850490554837573
1.4633066583710097
1.5264655685525133
1.576869712578445
1.6145898275291688
1.6420786016543802
1.6611484432559078
1.6747935892555874
1.6836980160758237
1.6897418309533574
1.6928103679932323
1.6942888375298952
1.694570408650697
1.694491885137062
1.6937630624025934
1.693477517337256
1.6935358729869059
1.6932957815086318
1.6932971366257235
1.6936570332876828
1.6946055020672457
1.6965009708495375
1.7002177173852016
1.705690534923495
1.7166088393438046
1.736210737832806
1.7725885279794351
1.7984226750562227
1.8041410735535997
1.7712194622507529
1.7322404047459714
1.691926181734613
1.697019378729591
)
;

boundaryField
{
    ".*"
    {
        type            zeroGradient;
    }
}


// ************************************************************************* //
