/*--------------------------------*- C++ -*----------------------------------*=========                 |
  \      /  F ield         | OpenFOAM: The Open Source CFD Toolbox
   \    /   O peration     | Website:  https://openfoam.org
    \  /    A nd           | Version:  6
     \/     M anipulation  |
\*---------------------------------------------------------------------------*/
FoamFile
{
    version     2.0;
    format      ascii;
    class       volScalarField;
    location    "600";
    object      PPD;
}
// * * * * * * * * * * * * * * * * * * * * * * * * * * * * * * * * * * * * * //

dimensions      [0 0 0 0 0 0 0];

internalField   nonuniform List<scalar> 
459
(
56.9789726610283
45.039578503776525
43.53774484095988
42.28768401502261
41.48016245890545
41.06520269636203
41.061044445325685
41.39635006771635
42.134554550374745
43.36895044536847
45.168271943551034
47.69193681963792
50.74428246425948
51.00379178324865
51.62708009166001
55.789161005092346
55.034913475011585
54.69666756556717
54.85278874143209
55.060929631578816
55.269041863819396
55.223616224918324
54.94361297698051
54.93042765675785
55.02503480146233
55.157718466909564
55.29097646596621
55.48212406527969
55.725374990791366
56.074547812536856
56.649218116555986
57.55480861177311
57.86577787125484
58.6421419348669
54.66499032741519
46.182456479616214
45.653891823628406
44.48331496314627
43.80981683662865
43.46630828514347
43.45483276321241
43.625569734521136
43.95137322583588
44.597092236599714
45.723175456120416
47.470575214987974
49.945277564165416
50.32934053595337
50.588638239227954
50.666454399797814
50.84807125843949
54.305815607283535
54.30632274222881
54.09820083221587
54.254350505841785
54.05663648254282
53.86066695040103
53.81522229599735
53.90085558606168
54.034134752739504
54.1497224078686
54.22914891387882
54.33980059562811
54.45962088638895
54.59277775869774
54.83074559291141
55.32242535981596
56.449978457405926
57.01010910310159
56.894615412861114
56.797370097631635
46.3328128761511
47.64052393663803
47.1343392405316
47.008454943339764
47.009167793160465
47.11462015564614
47.016920349753235
46.58262429354797
46.169173994978564
46.162386799499636
46.833451814410886
48.37695766919298
50.04428146735328
50.303418599207276
50.48490235058417
50.666454399797814
48.8603168788163
50.67121559254709
51.17168356278665
51.68479257752236
52.38082656834561
52.8541136058487
53.09268958731732
53.725741943255855
54.18568303552653
54.48230814503062
54.649334564290065
54.77896993619477
54.90096742760989
54.94295358566428
54.79139255013328
54.98263167352761
56.0064897248824
55.74185798705742
53.483855810147645
60.80989236428199
46.63721908934581
49.2350317421653
49.94905092817781
51.02220889825633
51.9623489012879
52.47216053497814
51.505048855607455
49.381251296713046
47.25374965371841
45.826123280190366
45.52102564440084
46.39967822540429
48.16475765094106
49.938849966929105
50.28912038142405
48.482006736813844
46.48999465437008
47.04319074405087
48.6603843011648
50.25705972424185
51.71323447358221
53.05679115406585
54.151764712407285
54.69965897178209
54.7731588575345
54.85931062759525
55.04317109378519
55.276680976700725
55.61939926731662
56.103222174689016
56.86686420590487
58.1743898425086
57.812435424882906
56.96037198809052
54.73889455118408
51.175539857929046
65.54315544667733
47.74897949190892
50.80310798892761
52.72449733631023
55.84934144983457
59.055506582499405
59.021369227772965
54.78499684603172
50.30206923592745
46.7946633798192
44.628464638606786
43.945686960775596
44.60847836481712
46.22227705327374
48.1000527970349
49.26521398578907
49.106218769435735
48.92910682264322
49.584631212365935
51.043142688975095
52.85210455657394
54.578157659943
56.14597003707742
57.42550983107602
58.30808088681542
58.66725481280216
58.901028303597144
59.064352569195464
59.18293703707804
59.20622653680827
59.27798981909231
59.36220754446122
59.472402762749304
58.637684495778444
57.08630254877959
53.89102611387861
53.53321920788905
61.01082333599504
60.584611283468206
51.76523380433673
70.1416708455805
50.068605212481515
53.71868964993673
55.84217376369354
59.90630932871642
61.52274704783671
57.9992971545238
53.231335692644066
48.653618514400364
44.973022874257936
42.75556409599563
42.25708868194368
43.25243561164152
45.329837197420666
47.89111876753433
50.11322668311063
51.42967255859746
52.4121923427048
53.72779183713491
55.490005509679165
57.21768449971599
58.25416005565806
59.132953459318344
59.82906921886269
60.420659328170984
60.882654834868156
61.26693797386591
61.49718020113789
61.650533596144875
61.59942855737566
61.47161020081393
61.19013517116316
60.805718940630214
59.42892262743951
57.44604320759257
54.022525317395825
53.790441424784845
54.91020028206808
55.0098364937288
55.80720920389105
74.56017246502711
55.30690037049509
62.05982141041622
61.164644567683794
60.72300643397172
58.195138718024516
54.1617733972557
49.31687749753223
44.7691829547285
41.515476049112856
40.087419328182364
40.568431501702754
42.66492501679384
45.901704200480125
49.7379072285774
53.23940500898755
54.72268856876708
56.0751043854065
57.295503398598775
58.461135880340706
59.519891694964635
60.420659328170984
61.164528176465744
61.75270495989787
62.18634251373087
62.51727835709348
62.77143302281549
62.89837242501199
62.89837242501199
62.77143302281549
62.49184297810886
62.08439779516274
61.59942855737566
60.933930988216716
58.74232816221722
55.52888966500195
54.24225332005911
53.75639924995721
52.44909726192277
57.0282267488477
80.486687924481
72.27051653940626
70.08411034257907
65.0517069364837
60.95894967653484
55.08206641815249
48.30635488023291
42.244395822047906
38.12096860832445
36.394788835795005
37.09772495236089
39.78412006515276
44.000556673377076
49.321948117473724
53.52565317117992
55.763161444627364
57.52888459415862
58.900555957019385
60.00926140509718
60.95956469934234
61.7782396720346
62.46640402199476
62.974491149979585
63.37987561254574
63.65799275306372
63.83472065873909
63.910399173899194
63.910399173899194
63.83472065873909
63.65799275306372
63.35456828963878
62.9237490979757
62.46640402199476
61.88034567924283
61.21573914289196
60.54908174723351
59.53292003336905
58.928632664924265
55.69224951638799
51.14085773150958
87.78968568740665
83.27562434130319
76.49161848686241
67.18628356128232
52.3409306939983
39.3974256057754
31.34476334807026
27.8088641223505
27.92710236487278
30.937336145331173
36.30024048220364
43.17440543769612
50.09609668954963
53.889998702109025
57.26956512758522
59.31358707824681
60.67743540590265
61.676081292616786
62.46640402199476
63.1266261770135
63.62636346706992
63.74296251122458
63.78361994756055
63.79776949481566
63.72202856203099
63.601232390175184
63.38122176535336
63.06653413163787
62.63842416869411
62.11746715068449
61.48278094973901
60.79580469500311
60.12643107335643
59.30993409334146
58.428302903710446
57.6776402888794
57.21192421709367
56.97830384134412
56.38505135011018
54.793812328468476
99.02614897844528
79.74807651052129
37.06913347833589
8.346172455119131
5.9126730159396885
14.441659147951043
27.851287430996805
38.471721045419976
47.411773888047975
53.00522799988374
56.56827737564095
57.96334884907683
59.29423455164434
60.30013828449199
61.06250320092039
61.679096040445
62.1223987261396
62.402999809808264
62.577333166794624
62.598971528662034
62.55909001449301
62.441093260058146
62.265391932270866
62.02215624342735
61.757524468976534
61.474461707738925
61.183622912862745
60.89983776064462
60.67138715609513
60.48221497391081
60.36835094559204
60.26467417020081
60.228593133557425
60.34930108847942
60.94472323981043
62.83861433499332
66.63162680007255
58.63143850358687
93.50370808152758
26.41925396004227
5.102543088043205
13.260220916314694
23.221157001031912
32.1309641885188
39.66475744156295
45.84709415238381
50.703266741210335
54.09553900068636
56.43478638078815
58.1101652805663
59.32991144700865
60.215552486316334
60.831313675527774
61.307164643635424
61.64419489583462
61.84918905452513
61.9588590956068
62.00984654906812
62.00674708540513
61.99507779248013
61.917211539831015
61.85121933376255
61.74709494074498
61.63767894724554
61.56261579102759
61.491021991508376
61.5046947453159
61.67670036550218
62.02698316145287
62.607814151410544
63.22218122154515
63.768278947028136
64.37042639873471
66.4264429941756
63.10430665152508
60.622255900640425
18.05438135251896
23.005916055912977
18.7349550699722
9.264820563040203
24.274991876627027
33.36942225412399
39.61303492934176
44.7105330052735
48.90448514709897
52.33175690566752
55.07736758172671
57.13011129441804
58.62162854398688
59.652910047229405
60.38865706700557
60.867668712024695
61.19224952926897
61.35686716560383
61.43613880260862
61.45123263959447
61.44702343156607
61.40795141926608
61.39264150876625
61.39577041820338
61.382896922515165
61.38296958483425
61.40226664046466
61.4531137757213
61.55469352654737
61.753736350547825
62.04647347157528
62.629186013355216
63.67064312465893
65.58517020749034
66.92826111822738
67.22350157972801
65.5135896640412
63.46021250251318
61.30944576390593
61.58246706109947
)
;

boundaryField
{
    ".*"
    {
        type            zeroGradient;
    }
}


// ************************************************************************* //
