/*--------------------------------*- C++ -*----------------------------------*\
  =========                 |
  \\      /  F ield         | OpenFOAM: The Open Source CFD Toolbox
   \\    /   O peration     | Website:  https://openfoam.org
    \\  /    A nd           | Version:  6
     \\/     M anipulation  |
\*---------------------------------------------------------------------------*/
FoamFile
{
    version     2.0;
    format      ascii;
    class       volScalarField;
    location    "500";
    object      nut;
}
// * * * * * * * * * * * * * * * * * * * * * * * * * * * * * * * * * * * * * //

dimensions      [0 2 -1 0 0 0 0];

internalField   nonuniform List<scalar> 
459
(
0.000732814
0.000761183
0.00074428
0.000769267
0.000791165
0.0008098
0.000825851
0.000840066
0.000853232
0.000866298
0.000876438
0.000882475
0.000884373
0.000883708
0.000880785
0.000716623
0.000672833
0.000632369
0.000594651
0.000559554
0.000526446
0.000492893
0.00045944
0.000426866
0.000394515
0.000360011
0.000319866
0.000274548
0.000236586
0.000219799
0.000218803
0.000243688
0.000469339
0.000389638
0.00114074
0.00179259
0.00148423
0.00175392
0.00187607
0.00200538
0.00213471
0.0022536
0.00234686
0.00239386
0.002403
0.00234802
0.00219256
0.00188714
0.00139625
0.000906269
0.000849054
0.000834621
0.00136176
0.00165096
0.00175902
0.0017165
0.00158963
0.00133226
0.00113435
0.000969258
0.000827024
0.000709828
0.000628293
0.000591248
0.000600466
0.000654356
0.000721299
0.000710391
0.00107019
0.00053369
0.00151872
0.00278255
0.00160213
0.00249605
0.00270453
0.00284534
0.00295631
0.00304173
0.00310442
0.00314055
0.00314983
0.0031085
0.00298288
0.00273005
0.00230861
0.00172376
0.000992663
0.000936877
0.00238863
0.00279234
0.00282849
0.00265257
0.00220595
0.000588713
0.000513414
0.000463439
0.000427779
0.000401249
0.000381405
0.000367235
0.000358007
0.00035394
0.000411781
0.000480065
0.000909702
0.000619393
0.00190724
0.00428081
0.00160665
0.00280122
0.00318784
0.00331608
0.00338648
0.00342716
0.00345313
0.0034698
0.00347937
0.00346958
0.00341697
0.003287
0.00302358
0.00253821
0.00176718
0.0010109
0.00267601
0.00306531
0.00325658
0.00328873
0.00321044
0.00264214
0.000696349
0.000650744
0.000630448
0.000624286
0.000622601
0.000616048
0.000598984
0.000579769
0.000553736
0.000524821
0.000539194
0.00122201
0.000650895
0.00229969
0.00622183
0.00207332
0.00264119
0.00340079
0.00356135
0.00360773
0.00361255
0.00360365
0.00360039
0.00360698
0.00362668
0.00363509
0.00360242
0.00349413
0.00328707
0.00302292
0.00281403
0.00280818
0.00310694
0.00321657
0.00328971
0.0033631
0.00333943
0.00297683
0.00291817
0.00294848
0.00298699
0.00298632
0.00291864
0.00274961
0.00240982
0.00196842
0.00148876
0.00105858
0.00104089
0.00105081
0.000738208
0.000846384
0.000965708
0.0026964
0.00825762
0.00363523
0.00236085
0.00316255
0.0035445
0.00368207
0.00371667
0.003684
0.00362856
0.00362129
0.00366382
0.00370867
0.00372168
0.00365519
0.00344007
0.00304763
0.00263136
0.00262646
0.00304776
0.00309782
0.00312952
0.00326315
0.00344082
0.00356447
0.00368297
0.00376925
0.00380463
0.00377721
0.00368721
0.00354334
0.00328403
0.00288928
0.00236606
0.00179814
0.00122696
0.00120964
0.00112197
0.0015592
0.00103537
0.00308732
0.00990638
0.00662087
0.0035604
0.00265189
0.00277657
0.00318435
0.0035338
0.00374947
0.00361233
0.00361272
0.00366339
0.00371872
0.00375562
0.00373164
0.00354928
0.00309719
0.00247679
0.00246158
0.00304128
0.00305133
0.00306453
0.00323749
0.00349972
0.00374465
0.00391771
0.00400333
0.00400905
0.0039538
0.00386219
0.00376126
0.00365261
0.00338884
0.00294754
0.00245345
0.00200092
0.00187685
0.00195135
0.0020356
0.00128556
0.00318464
0.00983916
0.00810769
0.00652396
0.0048595
0.00374234
0.00332253
0.00336242
0.00360379
0.00364
0.0036376
0.00365682
0.00369364
0.00372526
0.00371284
0.00357863
0.00315113
0.00237433
0.00231557
0.00308869
0.00309463
0.00315226
0.00339824
0.00366596
0.00385726
0.0039484
0.00395572
0.00390493
0.00382852
0.00376454
0.00374927
0.00380453
0.00385959
0.00360946
0.00344759
0.00357864
0.00416703
0.00477555
0.00529656
0.00175693
0.00311925
0.00376958
0.00428984
0.00450617
0.00444676
0.00414533
0.00382957
0.00362231
0.00353878
0.00350539
0.00352538
0.0035741
0.00362579
0.00365554
0.00363665
0.00350903
0.00307934
0.00221206
0.00216603
0.00317524
0.00321456
0.00336002
0.00366297
0.00385315
0.00389962
0.00385896
0.00377161
0.00364691
0.0035003
0.00336092
0.00325263
0.00317985
0.00313582
0.00311401
0.00312175
0.00311342
0.00298993
0.0027241
0.00245815
0.00159931
0.00236021
0.00419526
0.00441683
0.00434338
0.00418122
0.00402507
0.00391094
0.00382668
0.00376303
0.00370797
0.00364483
0.00356151
0.0034496
0.00326306
0.00278975
0.0018844
0.00197467
0.00333081
0.0033879
0.00369387
0.00407096
0.00411003
0.00396486
0.00383583
0.0037452
0.00363374
0.00348483
0.00333364
0.00322398
0.00317527
0.00317022
0.00317742
0.003168
0.00308983
0.00288209
0.00254437
0.00213031
0.00129762
0.00248916
0.00482309
0.00494475
0.00474512
0.0045357
0.0043299
0.00412238
0.00391965
0.00370242
0.00343743
0.00315818
0.00288741
0.00263996
0.00240218
0.00205752
0.00144033
0.0017262
0.00302796
0.00313925
0.00356374
0.00391393
0.0039173
0.00370544
0.00355417
0.00349336
0.00344682
0.00337927
0.00330257
0.00324887
0.00325675
0.00331049
0.00338135
0.00343317
0.0034496
0.00336782
0.00322029
0.00267685
0.00131942
0.00214481
0.00226604
0.00236875
0.00250866
0.00234921
0.00218488
0.0020148
0.00186854
0.00173169
0.00160449
0.00148946
0.00139162
0.00130306
0.0012202
0.00114173
0.00106746
0.000996079
0.000904663
0.000861741
0.000903363
0.000921414
0.000950817
0.000975166
0.000964369
0.000954738
0.000952563
0.000959007
0.000972862
0.000994923
0.00102838
0.00107504
0.00113264
0.00120126
0.00127895
0.00136338
0.00146413
0.00148568
0.00143842
0.00133627
0.00122596
)
;

boundaryField
{
    floor
    {
        type            nutkWallFunction;
        Cmu             0.09;
        kappa           0.41;
        E               9.8;
        value           nonuniform List<scalar> 
29
(
0.00010659
8.67613e-05
8.13859e-05
7.63805e-05
7.16788e-05
6.72713e-05
6.30828e-05
5.88054e-05
5.45056e-05
5.02811e-05
4.6044e-05
4.14735e-05
3.60817e-05
2.989e-05
2.46081e-05
2.22451e-05
2.21086e-05
2.56231e-05
5.57806e-05
4.54001e-05
4.54e-05
6.40052e-05
7.47741e-05
7.86867e-05
0.00010659
8.67613e-05
0.000101063
0.000113265
0.000122001
)
;
    }
    ceiling
    {
        type            nutkWallFunction;
        Cmu             0.09;
        kappa           0.41;
        E               9.8;
        value           nonuniform List<scalar> 
43
(
0.000248903
0.000261954
0.000272955
0.000287985
0.000271022
0.000253387
0.00023497
0.000218994
0.000203921
0.000189794
0.000176913
0.000165869
0.0001558
0.000146309
0.000137255
0.00012862
0.000120257
0.000109457
0.000104312
0.000109276
0.000111399
0.000114889
0.000117787
0.000116532
0.000115388
0.000115126
0.000115884
0.000117519
0.000120118
0.000124048
0.000129505
0.000136204
0.000144135
0.000153053
0.000162677
0.000174075
0.000176501
0.000171174
0.000159594
0.000146978
0.000352485
0.000419456
0.000285665
)
;
    }
    sWall
    {
        type            nutkWallFunction;
        Cmu             0.09;
        kappa           0.41;
        E               9.8;
        value           uniform 0.000248972;
    }
    nWall
    {
        type            nutkWallFunction;
        Cmu             0.09;
        kappa           0.41;
        E               9.8;
        value           nonuniform List<scalar> 6(0.000116682 0.000124878 0.000153825 0.000155201 0.000157688 0.00014699);
    }
    sideWalls
    {
        type            empty;
    }
    glass1
    {
        type            nutkWallFunction;
        Cmu             0.09;
        kappa           0.41;
        E               9.8;
        value           nonuniform List<scalar> 9(8.87181e-05 0.000137284 0.000180477 0.00022363 0.000266253 0.000308555 0.000349601 0.000359744 0.000352955);
    }
    glass2
    {
        type            nutkWallFunction;
        Cmu             0.09;
        kappa           0.41;
        E               9.8;
        value           nonuniform List<scalar> 2(0.000206852 0.00018934);
    }
    sun
    {
        type            nutkWallFunction;
        Cmu             0.09;
        kappa           0.41;
        E               9.8;
        value           nonuniform List<scalar> 
14
(
8.87429e-05
9.21954e-05
9.01386e-05
9.31746e-05
9.58258e-05
9.80754e-05
0.000100008
0.000101716
0.000103295
0.000104859
0.000106071
0.000106792
0.000107019
0.000106939
)
;
    }
    heatsource1
    {
        type            nutkWallFunction;
        Cmu             0.09;
        kappa           0.41;
        E               9.8;
        value           nonuniform List<scalar> 3(8.94093e-05 0.000102477 0.000116674);
    }
    heatsource2
    {
        type            nutkWallFunction;
        Cmu             0.09;
        kappa           0.41;
        E               9.8;
        value           nonuniform List<scalar> 4(0.000109624 0.000102791 0.000102791 0.000119849);
    }
    Table_master
    {
        type            nutkWallFunction;
        Cmu             0.09;
        kappa           0.41;
        E               9.8;
        value           nonuniform List<scalar> 9(7.09542e-05 6.14497e-05 5.50472e-05 5.04261e-05 4.69569e-05 4.43434e-05 4.24671e-05 4.12403e-05 4.06981e-05);
    }
    Table_slave
    {
        type            nutkWallFunction;
        Cmu             0.09;
        kappa           0.41;
        E               9.8;
        value           nonuniform List<scalar> 9(8.42821e-05 7.86595e-05 7.6142e-05 7.53768e-05 7.51694e-05 7.43572e-05 7.22316e-05 6.98288e-05 6.65569e-05);
    }
    inlet
    {
        type            calculated;
        value           uniform 0.000100623;
    }
    outlet
    {
        type            calculated;
        value           nonuniform List<scalar> 2(0.00214481 0.00226604);
    }
}


// ************************************************************************* //
