/*--------------------------------*- C++ -*----------------------------------*\
  =========                 |
  \\      /  F ield         | OpenFOAM: The Open Source CFD Toolbox
   \\    /   O peration     | Website:  https://openfoam.org
    \\  /    A nd           | Version:  6
     \\/     M anipulation  |
\*---------------------------------------------------------------------------*/
FoamFile
{
    version     2.0;
    format      ascii;
    class       surfaceScalarField;
    location    "500";
    object      phi;
}
// * * * * * * * * * * * * * * * * * * * * * * * * * * * * * * * * * * * * * //

dimensions      [1 0 -1 0 0 0 0];

internalField   nonuniform List<scalar> 
852
(
-0.00274825
0.00281652
-0.00323056
0.000482349
-0.00379145
0.00056093
-0.00433448
0.000543067
-0.00481354
0.000479094
-0.00520766
0.000394164
-0.00549842
0.000290799
-0.00566452
0.000166139
-0.00568083
1.63503e-05
-0.00551624
-0.000164556
-0.00514211
-0.000374086
-0.00453898
-0.00060309
-0.00366192
-0.000877023
-0.00230977
-0.00135211
-0.0023067
0.00111662
-0.001113
0.00168571
-0.000569032
0.00190592
-0.00022016
0.0019577
-5.17277e-05
0.0019046
5.3152e-05
0.00177943
0.000125225
0.0016438
0.000135693
0.00152145
0.000122419
0.00139163
0.000129887
0.0012337
0.000158019
0.00103486
0.000198967
0.000810244
0.000224853
0.000609494
0.000201077
0.000464777
0.000145015
0.000354884
0.000110086
0.000257433
9.75694e-05
0.000259621
-2.10175e-06
0.000525954
-0.000266221
0.000532186
-0.00199745
0.00499455
-0.00273962
0.00122456
-0.0034261
0.00124745
-0.00399884
0.00111584
-0.00448772
0.000968017
-0.00489094
0.000797425
-0.005196
0.000595902
-0.0053847
0.000354885
-0.00543557
6.72644e-05
-0.00533119
-0.000268889
-0.0050582
-0.000647037
-0.00460527
-0.00105597
-0.00397159
-0.00151066
-0.00329683
-0.00202684
-0.00325723
-0.00234627
-0.00131542
-0.00194182
-0.00131543
0.000796393
-0.00189971
0.00112445
-0.000897019
0.00129673
-0.000392377
0.00137475
-0.000129699
0.00135511
7.2851e-05
0.00127428
0.000206097
0.00125555
0.000154477
0.00126462
0.000113397
0.00127422
0.000120339
0.00128915
0.000143157
0.0013176
0.000170601
0.00135945
0.000183132
0.00139442
0.000166272
0.00140093
0.000138668
0.00135247
0.000158694
0.00113315
0.000317032
0.000762263
0.000368928
0.000326837
0.000169347
0.000874043
-0.00146552
0.00673075
-0.00227288
0.00203196
-0.00293269
0.0019073
-0.00345218
0.00163537
-0.00389948
0.00141537
-0.00427635
0.00117434
-0.00457092
0.000890515
-0.00476548
0.0005495
-0.00483974
0.000141566
-0.00477489
-0.000333694
-0.0045617
-0.000860182
-0.00420951
-0.00140811
-0.003767
-0.00195314
-0.00334895
-0.00244485
-0.00294995
-0.00274523
-0.00199272
-0.00289901
-0.00330811
8.71439e-05
-0.00197207
0.000417463
-0.00122726
0.000688729
-0.00066357
0.000854583
-0.000295491
0.000904706
2.27807e-05
0.000725319
0.000385529
0.000879988
0.000993573
0.0011141
0.00125746
0.00142827
0.00161163
0.00177814
0.00191705
0.002076
0.0016795
0.000713625
0.00125938
0.000789157
0.000701889
0.000726955
0.00159813
-0.00108703
0.00816115
-0.00187607
0.00282103
-0.00236026
0.00239153
-0.00275972
0.00203488
-0.00312104
0.00177674
-0.00343849
0.00149183
-0.00369962
0.0011517
-0.00388675
0.000736678
-0.00397577
0.000230631
-0.00394012
-0.000369294
-0.00377604
-0.00102421
-0.00351865
-0.00166545
-0.00323475
-0.002237
-0.00298696
-0.0026926
-0.00273353
-0.00299862
-0.00245816
-0.00317435
-0.00283016
-0.00293607
-0.000599978
-0.00221364
-0.000303183
-0.00226879
2.94222e-05
-0.00155977
0.000328122
-0.000962186
0.000566211
-0.000533509
0.000806176
-0.000217127
0.00121236
-2.06128e-05
0.00130815
-9.59088e-05
0.00147648
-0.000168449
0.00165988
-0.000183533
0.0018406
-0.000180867
0.00199714
-0.000156682
0.00209064
-9.36535e-05
0.00206745
2.3023e-05
0.00187235
0.000194939
0.00143263
0.000439553
0.00125479
0.000891495
0.000697849
0.00134615
-0.000176887
0.00160179
0.00145113
-0.000799556
0.0093638
-0.00153124
0.00355275
-0.00173093
0.00259125
-0.00197162
0.00227561
-0.00221664
0.0020218
-0.00243994
0.00171518
-0.00262981
0.00134162
-0.00277317
0.000880089
-0.00284705
0.000304557
-0.00281123
-0.000405061
-0.00266675
-0.00116865
-0.00246862
-0.00186353
-0.00227623
-0.00242934
-0.00211991
-0.00284888
-0.00198782
-0.00313068
-0.00188526
-0.00327689
-0.00161885
-0.00320246
-0.000794412
-0.00303804
-0.000391917
-0.00267119
-0.000144179
-0.00180741
8.50315e-05
-0.0011913
0.00030073
-0.000749128
0.0005256
-0.000441931
0.000778619
-0.000273578
0.000954957
-0.000272202
0.00110277
-0.000316228
0.00126103
-0.000341761
0.00142589
-0.0003457
0.00158398
-0.000314756
0.00170927
-0.000218935
0.00175782
-2.55307e-05
0.00169199
0.000260772
0.00152057
0.000610969
0.00134808
0.00106399
0.00115961
0.00153464
0.000775597
0.00198587
0.000324218
0.00190258
-0.000939225
0.00126329
-0.00144782
0.000508412
-0.00138861
-0.00071153
0.0105285
-0.00133731
0.00417856
-0.00108774
0.00234171
-0.00109362
0.00228154
-0.00122477
0.00215299
-0.00134476
0.00183521
-0.0014324
0.0014293
-0.00148848
0.000936213
-0.00150038
0.000316512
-0.00142439
-0.00048101
-0.00128839
-0.0013046
-0.00115508
-0.0019968
-0.00106481
-0.00251957
-0.00103014
-0.00288353
-0.00104259
-0.00311821
-0.00106538
-0.00325409
-0.000945936
-0.00332189
-0.000580808
-0.00340313
-0.000327337
-0.00292457
-0.000212093
-0.00192254
-0.000100868
-0.00130242
2.87306e-05
-0.000878642
0.000177779
-0.000590912
0.000343886
-0.000439631
0.000482042
-0.000410312
0.000600643
-0.000434791
0.000727401
-0.000468491
0.000871566
-0.000489844
0.00103134
-0.000474513
0.001196
-0.000383589
0.00133948
-0.000169002
0.00142268
0.000177577
0.00145374
0.0005799
0.00150435
0.00101338
0.00164062
0.00139839
0.00188573
0.00174079
0.00221597
0.00157238
0.00247606
0.00100324
0.00208266
0.000901845
0.000763757
-0.00095233
0.0119776
-0.00105219
0.00427845
-0.000176744
0.0014663
8.07522e-05
0.00202407
-3.1664e-06
0.00223694
-8.85372e-05
0.00192062
-8.76723e-05
0.00142847
-2.6141e-05
0.000874722
9.65928e-05
0.00019382
0.000241977
-0.000626353
0.000346754
-0.00140934
0.000372474
-0.00202249
0.000312399
-0.00245947
0.000178092
-0.00274921
-9.07449e-06
-0.00293103
-0.000207103
-0.00305606
-0.000325225
-0.00320377
-0.00025063
-0.0034777
-0.0001986
-0.00297649
-0.000244743
-0.00187627
-0.000265561
-0.0012815
-0.000255338
-0.000888785
-0.000215191
-0.000630997
-0.00015069
-0.000504083
-8.41893e-05
-0.000476771
-1.75277e-05
-0.00050142
5.8778e-05
-0.000544773
0.000153616
-0.000584664
0.00027557
-0.000596454
0.000436261
-0.000544272
0.000646431
-0.000379168
0.000871991
-4.79807e-05
0.00109328
0.000358614
0.00135424
0.000752419
0.00172381
0.00102883
0.00226861
0.001196
0.00289963
0.00094138
0.00344677
0.000456118
0.00337676
0.000971881
0.00421018
0.00231878
0.0102113
0.00279406
0.0038032
0.0027536
0.0015068
0.00253997
0.00223773
0.00220507
0.00257188
0.00198393
0.00214179
0.00192488
0.00148756
0.00198612
0.000813521
0.00215465
2.53333e-05
0.00228627
-0.000757938
0.00225688
-0.00137991
0.00207556
-0.00184113
0.00178082
-0.00216472
0.00141069
-0.00237907
0.00100036
-0.00252069
0.000587635
-0.00264334
0.00024247
-0.00285862
9.02261e-05
-0.00332542
-6.0752e-05
-0.0028254
-0.000284283
-0.0016526
-0.000447701
-0.00111798
-0.000560059
-0.000776358
-0.00063351
-0.000557494
-0.000671627
-0.000465925
-0.000689014
-0.00045935
-0.000699478
-0.00049093
-0.000710097
-0.000534135
-0.000719263
-0.000575485
-0.000717306
-0.000598402
-0.000682738
-0.000578831
-0.000574662
-0.000487239
-0.000329194
-0.000293445
-3.31174e-06
3.27346e-05
0.000353592
0.000395517
0.000734662
0.000647766
0.00111146
0.000819214
0.00132226
0.000730587
0.00131881
0.00045959
0.000582733
0.00170797
0.00512537
0.0108227
0.0146236
0.0125457
0.00358472
0.0103188
0.00446469
0.00853685
0.00435387
0.0073036
0.00337509
0.00648225
0.00230895
0.00596722
0.0013286
0.00551253
0.000480064
0.00498563
-0.000231001
0.00440502
-0.000799264
0.00378844
-0.00122453
0.00314497
-0.00152123
0.00248429
-0.00171838
0.00181937
-0.00185576
0.00117557
-0.00199956
0.000636282
-0.00231935
0.000385798
-0.00307489
6.30202e-05
-0.0025025
-0.000375086
-0.00121436
-0.000661672
-0.000831298
-0.000879848
-0.00055813
-0.00105882
-0.000378483
-0.00119063
-0.000334081
-0.00128658
-0.000363368
-0.00138245
-0.000395037
-0.00150818
-0.00040839
-0.00167613
-0.00040752
-0.00189102
-0.000383511
-0.00215745
-0.000312385
-0.00248185
-0.000162831
-0.0028662
9.09095e-05
-0.00329586
0.000462403
-0.00385601
0.000955684
-0.00473023
0.001522
-0.00598144
0.00207045
-0.00769597
0.00244513
-0.00961003
0.00237368
-0.00881791
0.000915879
-0.00332226
0.00454309
0.00492569
0.00454376
0.00446406
0.00562939
0.00326828
0.00603821
0.0029663
0.00607792
0.00226927
0.00599938
0.00140717
0.00582327
0.000656196
0.00550106
9.12407e-05
0.00501504
-0.00031323
0.00441014
-0.000619601
0.00372912
-0.000840202
0.00300365
-0.000992899
0.00225041
-0.00110252
0.00148071
-0.00122986
0.000797885
-0.00163653
0.000509356
-0.00278627
4.3478e-05
-0.00203645
-0.000646554
-0.000524187
-0.000932668
-0.000545108
-0.00119857
-0.000292197
-0.00146434
-0.000112676
-0.00165099
-0.000147393
-0.00175763
-0.000256704
-0.00186797
-0.000284683
-0.00203082
-0.000245526
-0.00224649
-0.00019184
-0.00249364
-0.000136347
-0.00274212
-6.38888e-05
-0.00295835
5.34039e-05
-0.00313263
0.000265205
-0.00327604
0.000605831
-0.00340805
0.0010877
-0.00354758
0.00166155
-0.00364506
0.00216794
-0.00357933
0.00237942
-0.00309189
0.00188625
-0.00167818
-0.000497812
-0.00490748
-0.000795406
0.00577945
0.00125737
0.00241133
0.0024678
0.00205788
0.00340483
0.00202929
0.00414607
0.00152806
0.0046042
0.000949058
0.00476733
0.000493088
0.00468374
0.000174851
0.00442965
-5.91232e-05
0.00404619
-0.000236124
0.00356531
-0.000359305
0.00301415
-0.000441725
0.00240694
-0.000495308
0.00174272
-0.000565631
0.00100584
-0.000899651
0.000166924
-0.0019472
-0.00067377
-0.00119554
-0.00121213
1.43003e-05
-0.00145603
-0.000301154
-0.00165844
-8.9768e-05
-0.00184743
7.63467e-05
-0.00196524
-2.95495e-05
-0.00204147
-0.000180439
-0.00211856
-0.00020758
-0.00220742
-0.000156654
-0.00230387
-9.53712e-05
-0.00239941
-4.07989e-05
-0.00248335
2.00676e-05
-0.00252866
9.87211e-05
-0.0024864
0.000222962
-0.00231158
0.000431024
-0.00197228
0.000748415
-0.0014878
0.00117709
-0.000836393
0.00151655
0.000174854
0.00136819
0.00140446
0.000656655
0.00159289
-0.000686224
-0.00321267
-0.00888652
-0.0115787
-0.00574905
-0.00330747
-0.00122485
0.000826217
0.00237499
0.0033449
0.00385949
0.00405681
0.00402125
0.00380974
0.0034761
0.00306117
0.00259383
0.0020574
0.00118825
-0.000727871
-0.00189599
-0.0018561
-0.00213268
-0.00219863
-0.00209895
-0.00210503
-0.00226188
-0.00244584
-0.00257898
-0.00265106
-0.00266891
-0.00262641
-0.00250595
-0.00226205
-0.00181096
-0.00104341
0.000151884
0.0016855
0.00307038
0.00374401
0.00307567
)
;

boundaryField
{
    floor
    {
        type            calculated;
        value           nonuniform List<scalar> 
29
(
0
0
0
0
0
0
0
0
0
0
0
0
0
0
0
0
0
0
0
0
-6.13543e-06
-1.49144e-05
-2.20795e-05
-2.97775e-05
-3.03318e-06
-3.56996e-06
-9.61078e-06
-1.47041e-05
-1.64883e-05
)
;
    }
    ceiling
    {
        type            calculated;
        value           nonuniform List<scalar> 
43
(
-5.39432e-05
-5.19611e-05
-5.01474e-05
-3.02112e-05
-2.47075e-05
-2.17481e-05
-2.06876e-05
-2.08274e-05
-2.14843e-05
-2.24459e-05
-2.35459e-05
-2.45902e-05
-2.56529e-05
-2.67683e-05
-2.79483e-05
-2.91884e-05
-3.04681e-05
-3.08082e-05
-2.71952e-05
-2.5415e-05
-2.45029e-05
-2.37866e-05
-2.33116e-05
-2.34385e-05
-2.35663e-05
-2.35973e-05
-2.34977e-05
-2.32801e-05
-2.29334e-05
-2.24185e-05
-2.17303e-05
-2.09309e-05
-2.00468e-05
-1.91241e-05
-1.81909e-05
-1.70499e-05
-1.66747e-05
-1.69602e-05
-1.78667e-05
-1.84224e-05
4.83211e-06
2.34877e-06
-5.83134e-05
)
;
    }
    sWall
    {
        type            calculated;
        value           uniform -0.000258415;
    }
    nWall
    {
        type            calculated;
        value           nonuniform List<scalar> 6(-5.94043e-05 -6.96756e-05 -6.96403e-05 -9.29507e-05 -0.000101901 -0.000118557);
    }
    sideWalls
    {
        type            empty;
        value           nonuniform 0();
    }
    glass1
    {
        type            calculated;
        value           nonuniform List<scalar> 9(-6.82463e-05 -0.000180555 -0.000270648 -0.000343338 -0.000403061 -0.000453131 -0.000496704 -0.00055249 -0.000616225);
    }
    glass2
    {
        type            calculated;
        value           nonuniform List<scalar> 2(-0.000332432 -0.000370261);
    }
    sun
    {
        type            calculated;
        value           uniform 0;
    }
    heatsource1
    {
        type            calculated;
        value           nonuniform List<scalar> 3(2.06337e-07 2.06134e-07 2.0615e-07);
    }
    heatsource2
    {
        type            calculated;
        value           nonuniform List<scalar> 4(5.13026e-08 5.15376e-08 0 0);
    }
    Table_master
    {
        type            calculated;
        value           nonuniform List<scalar> 9(-1.54767e-07 -1.54781e-07 -1.54759e-07 -1.54729e-07 -1.54691e-07 -1.54652e-07 -1.54621e-07 -1.54599e-07 -1.54571e-07);
    }
    Table_slave
    {
        type            calculated;
        value           nonuniform List<scalar> 9(1.54532e-07 1.5451e-07 1.54441e-07 1.54371e-07 1.5431e-07 1.54273e-07 1.54273e-07 1.54285e-07 1.5436e-07);
    }
    inlet
    {
        type            calculated;
        value           uniform -0.005884;
    }
    outlet
    {
        type            calculated;
        value           nonuniform List<scalar> 2(0.00919891 0.00274416);
    }
}


// ************************************************************************* //
