/*--------------------------------*- C++ -*----------------------------------*=========                 |
  \      /  F ield         | OpenFOAM: The Open Source CFD Toolbox
   \    /   O peration     | Website:  https://openfoam.org
    \  /    A nd           | Version:  6
     \/     M anipulation  |
\*---------------------------------------------------------------------------*/
FoamFile
{
    version     2.0;
    format      ascii;
    class       volScalarField;
    location    "2300";
    object      PPD;
}
// * * * * * * * * * * * * * * * * * * * * * * * * * * * * * * * * * * * * * //

dimensions      [0 0 0 0 0 0 0];

internalField   nonuniform List<scalar> 
459
(
59.41489997752789
47.67487464127817
46.27096418862226
45.047391824871546
44.22674832344554
43.727997205697314
43.58262486507231
43.782564211245905
44.29088971144558
45.169648422159014
46.52857231744779
48.431289679795995
50.96988286432281
53.01941400249005
53.253603228320266
56.76485265897113
56.06342211104296
55.77746180022999
55.88145853626516
56.01143666879062
56.16738255932789
56.26211827179931
56.040943884701086
56.00182238653253
56.043793572955906
56.11714765294935
56.214574227308184
56.34176292946281
56.51753428403764
56.79488531227169
57.31646242529969
57.646911927976134
57.854215104758815
58.50134755416815
57.37535879517129
48.83573686853712
48.36973617087096
47.24893071266611
46.56587969867694
46.16798163571284
46.06865302317679
46.17188524239814
46.41080319982167
46.85170257872935
47.6337420912334
48.92302535527026
50.7409545615512
52.5511368347808
52.6031595637179
52.6031595637179
52.6031595637179
54.78182488098088
55.54342667951015
55.33535122460667
55.413384022758905
55.21912730410968
54.989655403772424
54.91368151288551
54.94358124675727
55.00360263945605
55.04604858554032
55.07998754750452
55.11854360504674
55.16509567743647
55.22282320308122
55.358016705848684
55.79541081872092
56.60904443814092
56.920619314793285
56.46487973154826
59.65038489417211
48.99553758852923
50.31146328769481
49.77141319101521
49.634795253142464
49.61491595051457
49.692363064243104
49.70822981730798
49.47461200049865
49.09527433086011
48.91522597287051
49.21143454107113
50.188199979607575
51.83278897139728
52.447098348376976
52.57714791748134
52.655184504984256
49.885306633562124
52.10271117968318
52.78778098732444
53.29052757730684
53.80294319670876
54.194248384245334
54.3889874499581
54.82563367596458
55.12991428970782
55.29646964358537
55.359699438298705
55.392408003475346
55.419861263246865
55.34909888054481
55.148963438185895
55.23466976127896
56.219077028523934
55.72146024581369
53.116154734822835
63.717141442067195
49.297463571132035
51.82166316012854
52.37308518834504
53.32293402019553
54.19279206632674
54.840944064440606
54.597893977549056
53.19558244502954
51.219202750951574
49.54612346008588
48.678407507543454
48.81780011552102
49.92892308893363
51.63078203583664
52.6031595637179
51.85065652728699
49.64036289790828
49.57735296860178
51.06181818301298
52.458441228193465
53.62504581734917
54.6295312993353
55.38355386368911
55.64549241535125
55.601597792215486
55.604615418639405
55.663984087236315
55.75498346126946
55.94636217115041
56.31195887313478
56.96270524869978
58.16283845920711
57.80552192395759
57.03012394842086
54.63851485821973
50.67470869483841
68.39391900918125
50.420327025494366
53.32022930217624
54.87082860584896
57.492607747991265
60.410190020009466
61.715941878262306
59.26396604024689
55.40500495718655
51.62924116779774
48.93284903261788
47.454312276572175
47.26020450955939
48.13409971230906
49.695477633236855
51.13805258238354
51.54257882310749
51.38102937244292
51.833217039532386
53.15716435324909
54.75927684552245
56.21633799287301
57.459069056072
58.26850658060045
58.7340359720455
59.094721668042524
59.15928667035574
59.19173507899655
59.152329305466
59.06885006634235
59.024023444767494
59.05888265455051
59.13792458197887
58.391614336207354
56.96834417544579
53.67476980276516
53.31138615112624
60.33221467680518
59.57554354779669
50.74995175467536
72.84260833851326
52.754897082788546
56.17958388537322
57.802527019143426
61.511501295530834
63.01413137899226
62.429506998730474
58.15058084498987
53.94106091616777
50.077338800848246
47.19683972845559
45.74354064458986
45.71965301137854
46.93463371250506
48.95039362524493
51.135776198099805
52.80572013589495
54.007875776863024
55.30313413338396
56.972531891962866
57.88012086694495
58.65649060757223
59.302138033521224
59.791910517214994
60.2293868939968
60.56342060315413
60.82005384585926
60.99952725123524
61.07640051157647
61.02515462797718
60.84570158832933
60.56342060315413
60.177957270039215
58.9636747978903
57.1147552922987
53.66367540993964
53.58558530800356
54.34296893208647
54.27250887035366
54.93674933405606
77.009406541796
57.92999927094703
64.32608014197561
62.94906743147557
62.74055015215227
61.35161240972674
58.48931064937614
54.54404735910753
50.2410508556277
46.54776964234451
44.19953527221315
43.544479246177005
44.46281461589886
46.66368072045534
49.72023371353474
53.06864801735232
55.361362732587494
56.63501526206177
57.77648819612534
58.78572299194996
59.66310498616389
60.35791500360385
60.89698843232282
61.306858476957395
61.639300712907364
61.86913624720096
62.04771214133076
62.14968120709688
62.124194061017704
61.99670723557955
61.715941878262306
61.306858476957395
60.84570158832933
60.2293868939968
58.23908237080437
55.036685040661574
53.763084629500916
53.08940226060994
51.72561365370895
56.424495041534165
82.57641449802547
74.3465078272002
72.23256547779505
67.24831549101917
64.15937639532436
59.77848125899263
54.154834347250244
48.35825683492993
43.65808617971009
40.82579385864862
40.115026896695426
41.39699779363186
44.31128197317289
48.385506149091775
53.23625758608967
55.59543928892631
57.38764646175563
58.81156350224422
59.920655318136106
60.743093467425275
61.40920481743587
61.94568886374757
62.32799453540028
62.60785251110906
62.83650145809879
62.963398809987694
63.03949196919488
63.03949196919488
62.963398809987694
62.81111077199434
62.53157052359588
62.124194061017704
61.66485099686965
61.12763449600088
60.53774193706386
59.94639687059073
58.655783799017684
57.92704184536713
54.701014903890766
50.2635523963727
89.3092370516588
85.03479546852941
78.42162783031864
69.93216119836633
59.05982092352519
47.35736734618409
38.46557327315518
33.313061870793206
31.70468559247547
32.956251714252986
36.55769458854324
41.952814372163154
48.40743723229724
53.04543362642668
56.037429815761584
58.4754837230724
60.02360651595467
61.07640051157647
61.86913624720096
62.45525618735127
62.91265112819192
63.09288791239517
63.08903132610782
63.03058478193305
62.94346878793297
62.798190222507976
62.570565897529
62.24616922489549
61.83734846560997
61.34783045896453
60.76811576889395
60.15349313073715
59.54526765919136
58.865792950624616
58.09585603845773
57.38436109036374
56.87484787897605
56.50432453786734
55.799531135066076
54.284432425303926
99.00341507208248
68.7261374307005
32.27536900963268
8.214080582192096
5.576561719412041
12.547267805022898
24.09334647019486
35.95094252649304
44.31243814149144
51.043814293468756
55.12723986888278
57.93192751494295
59.14230826620343
60.02952017612973
60.737570473581
61.22342846213083
61.54497831102591
61.73197360204616
61.826143296530375
61.81077708031164
61.772717609274295
61.655942133599545
61.50041136931475
61.29654834012137
61.040885836637756
60.79076916225141
60.5067112610844
60.25917396343576
60.06794439181176
59.93610673543414
59.838716136951675
59.801337611234075
59.79599549797752
59.88246017112272
60.36372098721515
61.99898863108253
67.84995133234898
59.692531849165064
92.77267214565741
26.272281438065704
5.033130916380358
11.868185757889037
22.06763270066287
30.618204003393558
38.024652287866544
44.17033089462475
49.08079526634455
52.84169834494653
55.404236706852714
57.190308472573605
58.44389004298395
59.37247797283112
59.99340468052978
60.427050989293974
60.72598226092187
60.898397614128044
61.00835820550012
61.07021304591037
61.128124603908596
61.12044711204006
61.09694535789913
61.05687971254411
61.001844888999806
60.937516564518795
60.87579834558818
60.83850279410881
60.88069500050108
61.021715049420436
61.38912683684781
61.92810496932585
62.59954717664708
63.21471645816917
63.97929821424734
67.16379221561121
61.819467275341744
66.43696540121257
20.540059350508812
26.021641377521576
21.257859072853037
7.879542563890524
21.562940852393922
30.597743544278586
36.99330509139623
42.26146743071418
46.65054407505152
50.2823605630872
53.2647017926481
55.54919984581403
57.2148035682143
58.373116561010086
59.131242159223255
59.60948293396984
59.86405286027733
59.958315377001554
59.979050161255564
59.980503902174924
59.98128510452291
59.9631666596533
59.97653090759916
60.00903414722381
60.03300208512425
60.103693594102296
60.1718870302229
60.30254295385572
60.46009941788115
60.72024989746572
61.08627747869359
61.658650078348444
62.684015725995934
64.44186761267295
66.05200762697851
66.29999483129507
66.54746272241299
62.65750977341391
62.85613187787845
57.64958741847484
)
;

boundaryField
{
    ".*"
    {
        type            zeroGradient;
    }
}


// ************************************************************************* //
