// -*- C++ -*-
// File generated by PyFoam - sorry for the ugliness

FoamFile
{
 version 2.0;
 format ascii;
 class volScalarField;
 location "2300";
 object T;
}

dimensions [ 0 0 0 1 0 0 0 ];

internalField nonuniform List<scalar> 459
(
  302.681
  302.4
  302.385
  302.381
  302.377
  302.372
  302.367
  302.361
  302.352
  302.341
  302.331
  302.323
  302.319
  302.32
  302.329
  302.464
  302.437
  302.426
  302.43
  302.435
  302.441
  302.446
  302.452
  302.457
  302.462
  302.467
  302.472
  302.477
  302.482
  302.487
  302.493
  302.498
  302.506
  302.531
  302.866
  302.442
  302.413
  302.414
  302.415
  302.414
  302.411
  302.402
  302.385
  302.362
  302.338
  302.319
  302.306
  302.302
  302.304
  302.304
  302.304
  302.467
  302.417
  302.409
  302.412
  302.419
  302.425
  302.428
  302.43
  302.432
  302.434
  302.436
  302.438
  302.44
  302.442
  302.445
  302.451
  302.458
  302.47
  302.512
  303.06
  302.495
  302.448
  302.455
  302.467
  302.476
  302.478
  302.467
  302.439
  302.398
  302.356
  302.322
  302.302
  302.295
  302.298
  302.303
  302.306
  302.393
  302.389
  302.397
  302.411
  302.424
  302.435
  302.435
  302.435
  302.435
  302.436
  302.436
  302.436
  302.437
  302.437
  302.439
  302.442
  302.448
  302.459
  302.504
  303.257
  302.562
  302.486
  302.499
  302.525
  302.55
  302.564
  302.552
  302.507
  302.44
  302.374
  302.324
  302.295
  302.288
  302.294
  302.304
  302.314
  302.33
  302.35
  302.377
  302.404
  302.43
  302.452
  302.469
  302.482
  302.494
  302.505
  302.514
  302.521
  302.527
  302.532
  302.536
  302.537
  302.505
  302.479
  302.469
  302.505
  303.449
  302.649
  302.535
  302.542
  302.581
  302.624
  302.656
  302.636
  302.567
  302.469
  302.382
  302.319
  302.286
  302.279
  302.291
  302.31
  302.332
  302.356
  302.384
  302.416
  302.448
  302.477
  302.502
  302.522
  302.54
  302.554
  302.566
  302.576
  302.582
  302.584
  302.582
  302.577
  302.568
  302.544
  302.51
  302.485
  302.502
  302.602
  302.645
  302.651
  303.622
  302.763
  302.62
  302.608
  302.648
  302.707
  302.732
  302.684
  302.587
  302.472
  302.369
  302.299
  302.266
  302.267
  302.291
  302.325
  302.36
  302.397
  302.434
  302.472
  302.507
  302.537
  302.562
  302.581
  302.598
  302.611
  302.621
  302.628
  302.631
  302.629
  302.622
  302.611
  302.596
  302.572
  302.539
  302.507
  302.505
  302.546
  302.566
  302.607
  303.784
  302.943
  302.806
  302.781
  302.797
  302.831
  302.792
  302.688
  302.55
  302.414
  302.308
  302.248
  302.233
  302.255
  302.301
  302.356
  302.41
  302.459
  302.503
  302.542
  302.576
  302.603
  302.624
  302.64
  302.653
  302.662
  302.669
  302.673
  302.672
  302.667
  302.656
  302.64
  302.622
  302.598
  302.568
  302.537
  302.523
  302.534
  302.548
  302.582
  304.017
  303.392
  303.244
  303.164
  303.094
  302.963
  302.78
  302.577
  302.393
  302.256
  302.18
  302.164
  302.196
  302.259
  302.339
  302.419
  302.488
  302.543
  302.586
  302.618
  302.644
  302.665
  302.68
  302.691
  302.7
  302.705
  302.708
  302.708
  302.705
  302.699
  302.688
  302.672
  302.654
  302.633
  302.61
  302.587
  302.58
  302.598
  302.625
  302.782
  304.353
  304.057
  303.76
  303.448
  303.073
  302.666
  302.327
  302.091
  301.968
  301.942
  301.992
  302.09
  302.204
  302.321
  302.436
  302.53
  302.59
  302.631
  302.662
  302.685
  302.703
  302.717
  302.727
  302.733
  302.737
  302.739
  302.739
  302.737
  302.734
  302.731
  302.729
  302.73
  302.732
  302.741
  302.759
  302.787
  302.827
  302.867
  302.895
  302.967
  293.358
  295.255
  297.231
  298.703
  299.771
  300.573
  301.183
  301.641
  301.982
  302.244
  302.401
  302.509
  302.588
  302.642
  302.68
  302.706
  302.725
  302.739
  302.75
  302.757
  302.763
  302.766
  302.768
  302.769
  302.769
  302.77
  302.77
  302.771
  302.773
  302.776
  302.781
  302.791
  302.807
  302.829
  302.856
  302.881
  302.901
  302.95
  294.545
  296.994
  299.186
  300.3
  301.006
  301.502
  301.859
  302.128
  302.331
  302.481
  302.58
  302.647
  302.692
  302.724
  302.745
  302.76
  302.771
  302.778
  302.783
  302.786
  302.789
  302.79
  302.791
  302.792
  302.793
  302.794
  302.795
  302.796
  302.798
  302.8
  302.805
  302.811
  302.822
  302.837
  302.854
  302.873
  302.898
  302.925
  298.283
  298.207
  298.201
  300.521
  301.446
  301.844
  302.089
  302.275
  302.42
  302.533
  302.621
  302.685
  302.73
  302.761
  302.782
  302.797
  302.807
  302.813
  302.817
  302.82
  302.822
  302.822
  302.822
  302.822
  302.821
  302.821
  302.82
  302.82
  302.819
  302.819
  302.819
  302.819
  302.821
  302.823
  302.828
  302.838
  302.848
  302.856
  302.917
  303.021
)
;

boundaryField
{
  floor
  {
    type wallHeatTransfer;
    Tinf uniform 305.2;
    alphaWall uniform 0.24;
    value nonuniform List<scalar> 29
(
  302.602
  302.956
  302.875
  302.831
  302.835
  302.85
  302.869
  302.894
  302.92
  302.946
  302.971
  302.996
  303.019
  303.042
  303.064
  303.085
  303.107
  303.131
  303.149
  303.201
  303.201
  303.078
  303.017
  302.984
  302.602
  302.956
  302.939
  302.695
  302.561
)
;
  }
  ceiling
  {
    type wallHeatTransfer;
    Tinf uniform 303.2;
    alphaWall uniform 0.24;
    value nonuniform List<scalar> 43
(
  298.604
  298.518
  298.502
  300.674
  301.55
  301.927
  302.158
  302.335
  302.474
  302.583
  302.668
  302.732
  302.778
  302.81
  302.832
  302.848
  302.86
  302.867
  302.873
  302.876
  302.878
  302.878
  302.878
  302.878
  302.876
  302.875
  302.873
  302.871
  302.869
  302.867
  302.865
  302.864
  302.863
  302.864
  302.866
  302.873
  302.882
  302.891
  302.948
  303.038
  304.301
  304.023
  295.057
)
;
  }
  sWall
  {
    type wallHeatTransfer;
    Tinf uniform 315.2;
    alphaWall uniform 0.36;
    value uniform 299.895;
  }
  nWall
  {
    type wallHeatTransfer;
    Tinf uniform 307.2;
    alphaWall uniform 0.36;
    value nonuniform List<scalar> 6
(
  303.458
  303.394
  303.304
  303.547
  303.512
  303.608
)
;
  }
  sideWalls
  {
    type empty;
  }
  glass1
  {
    type wallHeatTransfer;
    Tinf uniform 315.2;
    alphaWall uniform 4.3;
    value nonuniform List<scalar> 9
(
  311.117
  310.431
  310.005
  309.684
  309.419
  309.181
  309.013
  309.1
  309.353
)
;
  }
  glass2
  {
    type wallHeatTransfer;
    Tinf uniform 307.2;
    alphaWall uniform 4.3;
    value nonuniform List<scalar> 2
(
  305.478
  305.614
)
;
  }
  sun
  {
    type wallHeatTransfer;
    Tinf uniform 305.2;
    alphaWall uniform 0.24;
    value nonuniform List<scalar> 14
(
  302.936
  302.665
  302.647
  302.634
  302.621
  302.61
  302.598
  302.586
  302.574
  302.564
  302.556
  302.554
  302.56
  302.576
)
;
  }
  heatsource1
  {
    type fixedGradient;
    gradient uniform 0;
  }
  heatsource2
  {
    type fixedGradient;
    gradient uniform 0;
  }
  Table_master
  {
    type zeroGradient;
  }
  Table_slave
  {
    type zeroGradient;
  }
  inlet
  {
    type fixedValue;
    value uniform 290.15;
  }
  outlet
  {
    type zeroGradient;
  }
} 	// ************************************************************************* //

