/*--------------------------------*- C++ -*----------------------------------*\
  =========                 |
  \\      /  F ield         | OpenFOAM: The Open Source CFD Toolbox
   \\    /   O peration     | Website:  https://openfoam.org
    \\  /    A nd           | Version:  6
     \\/     M anipulation  |
\*---------------------------------------------------------------------------*/
FoamFile
{
    version     2.0;
    format      ascii;
    class       volScalarField;
    location    "2900";
    object      alphat;
}
// * * * * * * * * * * * * * * * * * * * * * * * * * * * * * * * * * * * * * //

dimensions      [1 -1 -1 0 0 0 0];

internalField   nonuniform List<scalar> 
459
(
0.00132552
0.00145331
0.0014818
0.00155513
0.00162392
0.00168921
0.00175444
0.00181397
0.00185373
0.0018669
0.00184766
0.0017924
0.00169993
0.00157541
0.00143402
0.000599868
0.000724489
0.000815378
0.00081406
0.000787327
0.000751094
0.000704494
0.000658074
0.00061595
0.000578582
0.00054552
0.000516171
0.000490089
0.000466689
0.000445143
0.000424412
0.000403035
0.000389668
0.000357003
0.00180236
0.0045268
0.0043808
0.00511509
0.00583923
0.00655155
0.00715291
0.0076272
0.0080448
0.00837245
0.00856815
0.00858886
0.00836932
0.00774153
0.00601684
0.00147383
0.000862434
0.000636588
0.00134081
0.00187274
0.00226315
0.00247395
0.00246554
0.00196298
0.00168868
0.00149419
0.00134564
0.00122789
0.00113218
0.00104962
0.000972531
0.000897385
0.000830376
0.000770777
0.000916486
0.000473279
0.00219497
0.00618647
0.00547054
0.0068439
0.00754163
0.0080616
0.00846406
0.00880646
0.00916797
0.00953157
0.00985028
0.0100704
0.0101299
0.00992199
0.00914356
0.00692008
0.00151416
0.00123001
0.00180152
0.00233788
0.0028296
0.00316715
0.00308154
0.00100028
0.00088248
0.000787712
0.000711265
0.000649042
0.000597868
0.00055546
0.000520366
0.00049202
0.000531879
0.000615951
0.00103973
0.000552574
0.00256815
0.00786144
0.00553085
0.00724911
0.00784995
0.00807483
0.00824112
0.00845299
0.00876667
0.00916121
0.00957428
0.00993922
0.0101842
0.0102187
0.009978
0.00910796
0.00618524
0.00178527
0.00222343
0.00289197
0.00355667
0.00409029
0.00441268
0.00412287
0.00112482
0.00102399
0.000951812
0.000896303
0.000848461
0.000804839
0.000762798
0.000718729
0.000667786
0.000626037
0.000645444
0.00121873
0.000611344
0.00294623
0.00998585
0.00611769
0.00704417
0.00779598
0.00787188
0.00784772
0.00800607
0.00829418
0.00871452
0.00918407
0.00961336
0.00989635
0.00997144
0.00983302
0.00944309
0.00857381
0.00712713
0.00663066
0.00647993
0.00643586
0.00639894
0.00631233
0.0060368
0.00505576
0.00458509
0.00430832
0.0040917
0.00386493
0.00353975
0.00311586
0.0026148
0.00206896
0.00152987
0.00113095
0.00119282
0.000801078
0.000744668
0.000889609
0.000996163
0.00334519
0.0122881
0.0083636
0.0071846
0.00773298
0.00785518
0.00780246
0.007903
0.00813009
0.00851957
0.00902123
0.00950058
0.00980697
0.0098502
0.00964559
0.00929822
0.00892101
0.0085728
0.00838048
0.00821207
0.00799477
0.00773432
0.00743999
0.00708825
0.00661205
0.00620187
0.00584999
0.00552283
0.00519769
0.00484333
0.0043968
0.00384124
0.00318093
0.00246205
0.00183809
0.00136916
0.00107232
0.000945283
0.00136798
0.00104495
0.0036988
0.0138454
0.0114986
0.00922946
0.00884442
0.00851379
0.00817482
0.00804358
0.00819356
0.0086114
0.00918301
0.00971725
0.0100234
0.00999848
0.00968518
0.00927737
0.00902039
0.00899063
0.0090017
0.00885343
0.00852787
0.00809256
0.00759958
0.00708061
0.00656773
0.00612139
0.00573446
0.00538828
0.00507681
0.0048039
0.00456494
0.00418335
0.00365065
0.00301525
0.00242234
0.00189065
0.00154209
0.00147359
0.00154574
0.00120415
0.00375699
0.0120574
0.0109007
0.0100746
0.00928269
0.0084986
0.00802347
0.00797865
0.00834566
0.00900164
0.00973803
0.0103076
0.0105185
0.0103141
0.00981655
0.00932864
0.00914121
0.00918859
0.00907021
0.00866897
0.00807537
0.00738971
0.00669767
0.00607255
0.00555842
0.00515422
0.00483043
0.00456847
0.00436607
0.00422963
0.00416542
0.00412258
0.0038072
0.00338653
0.0030316
0.00288447
0.00308933
0.00375848
0.00472523
0.00185755
0.00364662
0.00430312
0.00474251
0.00485558
0.00511531
0.00568451
0.00657825
0.00773143
0.00899014
0.0101439
0.0109711
0.0112896
0.0110596
0.010421
0.00969984
0.00926617
0.00899952
0.00869342
0.00817407
0.00744623
0.00662128
0.00582264
0.0051438
0.0046201
0.00423285
0.00394043
0.00370694
0.00351143
0.00334139
0.00318693
0.00304006
0.00290563
0.00279931
0.00273064
0.0027221
0.0027583
0.00275519
0.00263852
0.00245131
0.00170857
0.00172993
0.00439025
0.0079316
0.0102198
0.0117205
0.012632
0.013004
0.0129182
0.0124648
0.0117417
0.0107229
0.00969365
0.00891008
0.00836308
0.00781077
0.00712904
0.00634133
0.00553128
0.00478425
0.00417866
0.00373445
0.00342057
0.00319543
0.00302712
0.00289675
0.00279504
0.00271875
0.0026689
0.00265099
0.00266203
0.00268904
0.00272862
0.00276776
0.00276988
0.00267994
0.00247912
0.00218149
0.00137679
0.00261855
0.00807376
0.0110482
0.0118097
0.0120301
0.0118404
0.0112737
0.0104694
0.0095613
0.00867435
0.0078382
0.00713659
0.00655359
0.00597024
0.00533823
0.00470326
0.00411995
0.00362496
0.00323245
0.00293184
0.00271778
0.00257041
0.00247368
0.00241788
0.00239694
0.00240548
0.0024366
0.00248473
0.00255847
0.00265223
0.00276155
0.00287771
0.00298138
0.00305526
0.00304253
0.00304541
0.00275379
0.00139387
0.00231617
0.0024574
0.00255887
0.00273872
0.00262261
0.00251902
0.00243431
0.00231293
0.00215002
0.00195506
0.00173834
0.00151881
0.0013229
0.00116611
0.00104847
0.000962037
0.000898456
0.000851981
0.000819499
0.000799357
0.000790238
0.000790612
0.000797688
0.000810492
0.000828454
0.00085134
0.000879193
0.000912362
0.000951674
0.00099819
0.00105126
0.00111144
0.00117922
0.00125519
0.00133934
0.00145103
0.00148288
0.00144624
0.00134907
0.00124442
)
;

boundaryField
{
    floor
    {
        type            compressible::alphatWallFunction;
        Prt             0.85;
        value           nonuniform List<scalar> 
29
(
0.00020205
8.43217e-05
0.000102756
0.000115957
0.000115767
0.000111903
0.00010664
9.98262e-05
9.29844e-05
8.67249e-05
8.11281e-05
7.61391e-05
7.16787e-05
6.76884e-05
6.40855e-05
6.0748e-05
5.75173e-05
5.41647e-05
5.20569e-05
4.68664e-05
4.68658e-05
6.51032e-05
7.72077e-05
8.60389e-05
0.000202048
8.43207e-05
8.97976e-05
0.000174248
0.000248925
)
;
    }
    ceiling
    {
        type            compressible::alphatWallFunction;
        Prt             0.85;
        value           nonuniform List<scalar> 
43
(
0.000317788
0.000335835
0.000348738
0.000371629
0.000357028
0.000343916
0.000333146
0.000317632
0.000296665
0.000271341
0.000242863
0.000213612
0.000187107
0.000165574
0.0001492
0.000137034
0.000128004
0.000121355
0.000116683
0.000113774
0.000112455
0.000112509
0.000113533
0.000115383
0.000117973
0.000121263
0.000125253
0.000129986
0.000135568
0.000142139
0.000149592
0.000157992
0.000167389
0.00017785
0.000189353
0.000204497
0.00020879
0.000203851
0.00019068
0.000176376
0.000484499
0.000564087
0.000356058
)
;
    }
    sWall
    {
        type            compressible::alphatWallFunction;
        Prt             0.85;
        value           uniform 0.000316516;
    }
    nWall
    {
        type            compressible::alphatWallFunction;
        Prt             0.85;
        value           nonuniform List<scalar> 6(0.000141505 0.000148353 0.000170463 0.0001941 0.000196416 0.000176029);
    }
    sideWalls
    {
        type            empty;
    }
    glass1
    {
        type            compressible::alphatWallFunction;
        Prt             0.85;
        value           nonuniform List<scalar> 9(0.000182584 0.000245558 0.00029617 0.000343476 0.000390733 0.000439968 0.000483153 0.000490364 0.000477211);
    }
    glass2
    {
        type            compressible::alphatWallFunction;
        Prt             0.85;
        value           nonuniform List<scalar> 2(0.00025648 0.000237003);
    }
    sun
    {
        type            compressible::alphatWallFunction;
        Prt             0.85;
        value           nonuniform List<scalar> 
14
(
0.000187344
0.00020466
0.000208499
0.000218346
0.000227535
0.000236218
0.000244857
0.000252709
0.000257937
0.000259666
0.000257139
0.000249865
0.000237637
0.000221055
)
;
    }
    heatsource1
    {
        type            compressible::alphatWallFunction;
        Prt             0.85;
        value           nonuniform List<scalar> 3(0.000105856 0.000126767 0.00014188);
    }
    heatsource2
    {
        type            compressible::alphatWallFunction;
        Prt             0.85;
        value           nonuniform List<scalar> 4(0.000207597 0.000122879 0.000122878 0.000213021);
    }
    Table_master
    {
        type            compressible::alphatWallFunction;
        Prt             0.85;
        value           nonuniform List<scalar> 9(0.000142456 0.000125746 0.000112111 0.000100969 9.17929e-05 8.41657e-05 7.7784e-05 7.2457e-05 6.81216e-05);
    }
    Table_slave
    {
        type            compressible::alphatWallFunction;
        Prt             0.85;
        value           nonuniform List<scalar> 9(0.000159879 0.000145794 0.000135613 0.000127722 0.000120875 0.000114591 0.000108497 0.000102065 9.457e-05);
    }
    inlet
    {
        type            fixedValue;
        value           uniform 1.94e-05;
    }
    outlet
    {
        type            zeroGradient;
    }
}


// ************************************************************************* //
