/*--------------------------------*- C++ -*----------------------------------*\
  =========                 |
  \\      /  F ield         | OpenFOAM: The Open Source CFD Toolbox
   \\    /   O peration     | Website:  https://openfoam.org
    \\  /    A nd           | Version:  6
     \\/     M anipulation  |
\*---------------------------------------------------------------------------*/
FoamFile
{
    version     2.0;
    format      ascii;
    class       volScalarField;
    location    "2900";
    object      nut;
}
// * * * * * * * * * * * * * * * * * * * * * * * * * * * * * * * * * * * * * //

dimensions      [0 2 -1 0 0 0 0];

internalField   nonuniform List<scalar> 
459
(
0.00113916
0.00124783
0.00127223
0.00133518
0.00139421
0.00145024
0.00150622
0.0015573
0.00159138
0.00160264
0.00158606
0.00153859
0.00145919
0.00135231
0.00123099
0.000515167
0.000622137
0.000700161
0.000699039
0.000676095
0.000644991
0.000604985
0.000565131
0.000528965
0.000496883
0.000468498
0.0004433
0.000420907
0.000400817
0.000382319
0.00036452
0.000346166
0.000334693
0.000306661
0.00154995
0.00388739
0.00376166
0.00439218
0.005014
0.00562564
0.00614193
0.006549
0.00690717
0.00718794
0.00735538
0.00737269
0.00718396
0.00664501
0.00516463
0.00126508
0.000740281
0.00054672
0.00115133
0.00160806
0.00194332
0.00212437
0.00211719
0.00168565
0.00145012
0.00128311
0.00115555
0.00105444
0.000972262
0.00090137
0.000835171
0.000770647
0.000713113
0.000661948
0.000787115
0.000406526
0.00188883
0.00531368
0.00469803
0.0058776
0.00647707
0.00692383
0.00726955
0.00756336
0.0078731
0.00818423
0.00845671
0.0086447
0.00869521
0.00851661
0.00784851
0.00594006
0.00129973
0.00105614
0.00154684
0.00200743
0.00242975
0.00271974
0.00264632
0.000859006
0.000757843
0.000676461
0.00061081
0.000557376
0.00051343
0.000477011
0.000446874
0.000422533
0.000456769
0.000528978
0.000892951
0.000474636
0.00221145
0.006754
0.00475054
0.00622664
0.00674332
0.00693706
0.00708026
0.00726198
0.00753032
0.00786747
0.00822043
0.00853236
0.00874182
0.00877131
0.00856485
0.00781831
0.0053096
0.00153261
0.00190889
0.00248309
0.00305409
0.00351261
0.00378976
0.00354107
0.000966135
0.000879564
0.000817597
0.000769939
0.000728859
0.000691399
0.000655294
0.000617443
0.000573681
0.000537758
0.000554378
0.00104674
0.00052513
0.00253867
0.0085818
0.00525554
0.00605161
0.00669834
0.00676453
0.00674448
0.0068801
0.00712602
0.00748474
0.00788576
0.00825266
0.00849469
0.00855899
0.00844053
0.00810635
0.00736065
0.00611917
0.00569345
0.00556463
0.00552739
0.00549622
0.00542229
0.00518596
0.00434345
0.00393928
0.00370165
0.00351563
0.00332085
0.00304146
0.00267723
0.00224667
0.00177762
0.00131434
0.00097151
0.00102457
0.000688117
0.00063987
0.000764527
0.000856118
0.00288416
0.0105646
0.00718714
0.00617372
0.00664584
0.0067522
0.00670741
0.00679274
0.00698566
0.00731752
0.00774578
0.00815549
0.00841763
0.00845479
0.00827984
0.00798257
0.00765965
0.00736157
0.00719734
0.00705359
0.00686776
0.00664471
0.00639238
0.00609056
0.00568168
0.00532944
0.00502722
0.00474617
0.00446679
0.00416222
0.0037784
0.00330086
0.00273331
0.00211543
0.00157914
0.00117614
0.000921142
0.000812125
0.00117536
0.00089793
0.00319082
0.0119108
0.00988747
0.00793559
0.00760495
0.00732148
0.00702904
0.00691379
0.00703948
0.00739515
0.00788329
0.00834027
0.00860265
0.00858194
0.00831433
0.00796571
0.00774645
0.00772216
0.00773281
0.00760643
0.00732755
0.00695414
0.00653097
0.00608529
0.00564473
0.00526127
0.0049288
0.00463129
0.00436356
0.00412891
0.00392338
0.00359524
0.00313725
0.00259101
0.00208132
0.00162431
0.00132479
0.00126599
0.00132804
0.00103467
0.00324357
0.0103882
0.0093871
0.0086734
0.0079898
0.00731173
0.00689874
0.0068556
0.00716659
0.00772641
0.00835641
0.00884477
0.0090267
0.00885323
0.00842839
0.00801162
0.00785242
0.00789456
0.00779395
0.00744999
0.00694045
0.00635158
0.00575704
0.00521989
0.00477807
0.00443068
0.00415235
0.00392715
0.00375312
0.00363575
0.00358043
0.00354342
0.00327216
0.00291042
0.00260519
0.00247857
0.00265454
0.00322973
0.00406083
0.00159717
0.00315184
0.00371563
0.00409104
0.00418426
0.00440258
0.00488589
0.00564773
0.00663265
0.00770937
0.00869815
0.00940899
0.00968541
0.00949168
0.00894704
0.00833111
0.00796105
0.00773347
0.00747144
0.0070258
0.0064007
0.00569191
0.00500558
0.00442213
0.00397197
0.00363908
0.00338768
0.00318694
0.00301882
0.00287261
0.00273978
0.0026135
0.00249793
0.00240654
0.00234758
0.00234038
0.00237174
0.00236939
0.00226936
0.00210853
0.00146995
0.00144123
0.00368114
0.00669518
0.00866957
0.00997826
0.010783
0.0111231
0.0110665
0.0106902
0.0100788
0.00920894
0.00832794
0.00765674
0.00718795
0.00671405
0.00612856
0.00545173
0.00475554
0.00411341
0.00359282
0.00321092
0.00294107
0.0027475
0.00260279
0.00249069
0.00240324
0.00233764
0.00229478
0.0022794
0.00228891
0.00231218
0.0023463
0.00238009
0.0023821
0.00230499
0.00213246
0.00187658
0.00118444
0.00219049
0.00681015
0.00938784
0.0100722
0.0102844
0.0101388
0.00966493
0.00898333
0.00820966
0.00745173
0.00673561
0.00613402
0.00563375
0.00513279
0.00458974
0.004044
0.00354257
0.00311701
0.00277955
0.00252107
0.00233702
0.0022103
0.00212712
0.00207915
0.00206115
0.00206849
0.00209526
0.00213666
0.00220008
0.00228072
0.00237477
0.00247472
0.00256398
0.00262766
0.00261689
0.00261956
0.00236872
0.00119909
0.00196218
0.00208129
0.00216719
0.00233754
0.00224532
0.00215948
0.00208855
0.00198562
0.00184665
0.00167982
0.00149404
0.00130563
0.00113739
0.00100269
0.000901594
0.000827303
0.00077265
0.000732697
0.000704772
0.000687454
0.000679614
0.000679935
0.00068602
0.00069703
0.000712476
0.000732156
0.000756108
0.000784632
0.000818439
0.000858442
0.000904079
0.000955838
0.00101413
0.00107948
0.00115187
0.00124798
0.00127542
0.00124394
0.00116038
0.0010705
)
;

boundaryField
{
    floor
    {
        type            nutkWallFunction;
        Cmu             0.09;
        kappa           0.41;
        E               9.8;
        value           nonuniform List<scalar> 
29
(
0.000147559
6.16524e-05
7.51104e-05
8.47474e-05
8.46097e-05
8.17894e-05
7.79475e-05
7.29728e-05
6.79771e-05
6.34064e-05
5.93194e-05
5.56759e-05
5.24183e-05
4.95039e-05
4.68723e-05
4.44343e-05
4.20742e-05
3.96249e-05
3.80853e-05
3.42938e-05
3.42937e-05
4.76211e-05
5.64653e-05
6.29187e-05
0.000147559
6.16524e-05
6.56547e-05
0.0001273
0.000181779
)
;
    }
    ceiling
    {
        type            nutkWallFunction;
        Cmu             0.09;
        kappa           0.41;
        E               9.8;
        value           nonuniform List<scalar> 
43
(
0.000229084
0.000242024
0.00025131
0.000269752
0.000259909
0.000250676
0.000243011
0.00023183
0.000216625
0.000198205
0.000177452
0.000156112
0.000136762
0.000121035
0.000109074
0.000100185
9.35857e-05
8.87269e-05
8.53123e-05
8.31866e-05
8.22221e-05
8.22617e-05
8.30102e-05
8.43627e-05
8.62559e-05
8.8661e-05
9.15777e-05
9.50371e-05
9.91181e-05
0.000103921
0.00010937
0.000115511
0.000122381
0.000130029
0.000138441
0.000149517
0.000152661
0.000149054
0.000139426
0.000128983
0.00035589
0.000413971
0.000253614
)
;
    }
    sWall
    {
        type            nutkWallFunction;
        Cmu             0.09;
        kappa           0.41;
        E               9.8;
        value           uniform 0.000229149;
    }
    nWall
    {
        type            nutkWallFunction;
        Cmu             0.09;
        kappa           0.41;
        E               9.8;
        value           nonuniform List<scalar> 6(0.000103645 0.00010864 0.000124796 0.000142217 0.000143907 0.000128991);
    }
    sideWalls
    {
        type            empty;
    }
    glass1
    {
        type            nutkWallFunction;
        Cmu             0.09;
        kappa           0.41;
        E               9.8;
        value           nonuniform List<scalar> 9(0.000137096 0.000183978 0.000221598 0.000256733 0.000291813 0.000328338 0.000360378 0.000365869 0.000356354);
    }
    glass2
    {
        type            nutkWallFunction;
        Cmu             0.09;
        kappa           0.41;
        E               9.8;
        value           nonuniform List<scalar> 2(0.000189104 0.000174828);
    }
    sun
    {
        type            nutkWallFunction;
        Cmu             0.09;
        kappa           0.41;
        E               9.8;
        value           nonuniform List<scalar> 
14
(
0.000136968
0.000149494
0.00015229
0.000159475
0.00016618
0.000172515
0.000178817
0.000184544
0.000188355
0.000189611
0.00018776
0.000182448
0.000173523
0.000161424
)
;
    }
    heatsource1
    {
        type            nutkWallFunction;
        Cmu             0.09;
        kappa           0.41;
        E               9.8;
        value           nonuniform List<scalar> 3(7.73144e-05 9.26005e-05 0.000103642);
    }
    heatsource2
    {
        type            nutkWallFunction;
        Cmu             0.09;
        kappa           0.41;
        E               9.8;
        value           nonuniform List<scalar> 4(0.000151463 8.96528e-05 8.96528e-05 0.000155427);
    }
    Table_master
    {
        type            nutkWallFunction;
        Cmu             0.09;
        kappa           0.41;
        E               9.8;
        value           nonuniform List<scalar> 9(0.000103987 9.17891e-05 8.18363e-05 7.3703e-05 6.70051e-05 6.14376e-05 5.67793e-05 5.28909e-05 4.97264e-05);
    }
    Table_slave
    {
        type            nutkWallFunction;
        Cmu             0.09;
        kappa           0.41;
        E               9.8;
        value           nonuniform List<scalar> 9(0.000116724 0.000106445 9.90158e-05 9.32572e-05 8.82595e-05 8.3673e-05 7.92243e-05 7.45286e-05 6.90559e-05);
    }
    inlet
    {
        type            calculated;
        value           uniform 0.000100623;
    }
    outlet
    {
        type            calculated;
        value           nonuniform List<scalar> 2(0.00196218 0.00208129);
    }
}


// ************************************************************************* //
