/*--------------------------------*- C++ -*----------------------------------*\
  =========                 |
  \\      /  F ield         | OpenFOAM: The Open Source CFD Toolbox
   \\    /   O peration     | Website:  https://openfoam.org
    \\  /    A nd           | Version:  6
     \\/     M anipulation  |
\*---------------------------------------------------------------------------*/
FoamFile
{
    version     2.0;
    format      ascii;
    class       surfaceScalarField;
    location    "1700";
    object      phi;
}
// * * * * * * * * * * * * * * * * * * * * * * * * * * * * * * * * * * * * * //

dimensions      [1 0 -1 0 0 0 0];

internalField   nonuniform List<scalar> 
852
(
-0.00304762
0.00310737
-0.00413857
0.00109094
-0.00494607
0.000807496
-0.0055584
0.000612322
-0.0059436
0.000385192
-0.00607751
0.000133913
-0.00593899
-0.000138527
-0.00551918
-0.000419822
-0.00484786
-0.00067132
-0.0039944
-0.000853471
-0.00305217
-0.000942234
-0.00211953
-0.000932639
-0.00128474
-0.000834803
-0.000592179
-0.000692562
-0.00059011
-0.00082373
0.000827407
-0.000502426
-0.000321308
0.000165283
-0.000667714
0.00070428
-0.000539001
0.00106891
-0.000364631
0.00129966
-0.000230757
0.00142647
-0.000126812
0.00148904
-6.25793e-05
0.00152436
-3.53242e-05
0.00154629
-2.19363e-05
0.001559
-1.27118e-05
0.001564
-5.0081e-06
0.00155961
4.38329e-06
0.00153752
2.20923e-05
0.00147499
6.25184e-05
0.00133381
0.000141179
0.00110084
0.000232963
0.000809728
0.000291111
0.000814706
-0.00216992
0.00543788
-0.00322175
0.00214276
-0.00404665
0.0016324
-0.00464795
0.00121362
-0.00502643
0.000763672
-0.00516621
0.000273685
-0.00504371
-0.000261034
-0.00465737
-0.000806169
-0.00404944
-0.00127925
-0.00329555
-0.00160737
-0.00248354
-0.00175425
-0.00169407
-0.00172212
-0.000998903
-0.00152997
-0.000470601
-0.00122087
-0.000234535
-0.000826182
8.51429e-05
-0.000319734
8.5086e-05
0.00034378
0.000494256
0.000778827
-0.00075636
0.00105246
-0.000941348
0.00128667
-0.000773215
0.00146723
-0.000545196
0.00157745
-0.000340984
0.00159608
-0.000145452
0.00160071
-6.72103e-05
0.00160625
-4.08695e-05
0.00161085
-2.65436e-05
0.00161387
-1.57298e-05
0.00161539
-6.53787e-06
0.00161462
5.14927e-06
0.00160791
2.88032e-05
0.00156568
0.00010474
0.00138496
0.000321897
0.00107445
0.000543463
0.000688986
0.000676574
0.00151635
-0.001514
0.0071973
-0.00241584
0.00304459
-0.00314222
0.00235878
-0.00365225
0.00172364
-0.00397514
0.00108656
-0.00408862
0.000387154
-0.00394889
-0.000400767
-0.00356029
-0.00119478
-0.0029889
-0.00185065
-0.00231927
-0.002277
-0.00163015
-0.00244337
-0.000978065
-0.00237421
-0.000409675
-0.00209837
4.28348e-05
-0.00167338
0.000339767
-0.00112312
0.00047912
-0.000459092
0.000564202
0.00161142
-0.00110576
0.00184119
-0.000986128
0.00179267
-0.000892832
0.00177761
-0.00075816
0.00179741
-0.000564999
0.00182127
-0.000364853
0.00167597
0.00160891
0.00156819
0.0015418
0.00152621
0.00151983
0.00152513
0.00155408
0.00165897
0.00136109
0.000619769
0.00100446
0.000900093
0.000573096
0.00110793
0.00210855
-0.00105173
0.00856671
-0.00176104
0.0037539
-0.00223424
0.00283197
-0.00255845
0.00204785
-0.00275096
0.00127906
-0.00276726
0.000403447
-0.00254477
-0.000623265
-0.00212436
-0.00161519
-0.00160018
-0.00237484
-0.00105085
-0.00282633
-0.000530413
-0.00296382
-6.2245e-05
-0.00284239
0.000341137
-0.00250175
0.00068086
-0.00201311
0.000991652
-0.00143392
0.0013598
-0.000827249
0.00223512
-0.000311122
0.00265276
-0.000407404
0.00223701
-0.000690011
0.00208737
-0.00083649
0.00195312
-0.000758592
0.00183534
-0.000640385
0.00176461
-0.000494275
0.00172034
-0.000320584
0.00185014
-0.000129959
0.00192596
-7.5972e-05
0.00198319
-5.73873e-05
0.00202313
-4.00999e-05
0.00203116
-8.18626e-06
0.00198656
4.44392e-05
0.00186535
0.000121049
0.00163541
0.000229788
0.00124127
0.000393982
0.00109882
0.000762214
0.000786366
0.00121254
0.000307898
0.00158639
0.00244142
-0.000732503
0.00967831
-0.00126563
0.00428702
-0.00134948
0.00291581
-0.00138496
0.00208332
-0.0013595
0.0012536
-0.00115716
0.000201105
-0.000769682
-0.00101075
-0.000323156
-0.00206172
9.69814e-05
-0.00279498
0.000449963
-0.00317932
0.000727415
-0.00324127
0.00093591
-0.00305089
0.00110115
-0.00266699
0.00124722
-0.00215919
0.00140716
-0.00159386
0.00162758
-0.00104768
0.0019496
-0.000633142
0.0020602
-0.000518011
0.0019589
-0.000588716
0.00176281
-0.000640407
0.00159197
-0.000587755
0.00144804
-0.000496453
0.00134418
-0.000390428
0.00129559
-0.000271992
0.00133241
-0.000166779
0.00137744
-0.000121007
0.00142658
-0.00010653
0.00147622
-8.97467e-05
0.00151501
-4.69774e-05
0.00152318
3.62619e-05
0.00148093
0.000163294
0.00137636
0.000334356
0.00121071
0.000559627
0.00106435
0.000908572
0.000902301
0.00137459
0.000510868
0.00197782
0.000393398
0.00255889
-0.00111131
0.0015045
-0.00157283
0.000461312
-0.00151897
-0.000634283
0.0107435
-0.00098973
0.00464246
-0.000527374
0.00245345
-8.54408e-05
0.00164138
0.00032978
0.000838375
0.000861478
-0.000330598
0.00138621
-0.00153549
0.00176416
-0.00243967
0.00197535
-0.00300618
0.00204607
-0.00325005
0.00201573
-0.00321094
0.00191539
-0.00295055
0.00178444
-0.00253606
0.0016598
-0.00203455
0.00157182
-0.00150589
0.00154135
-0.00101721
0.00155686
-0.000648653
0.00151156
-0.000472719
0.00136671
-0.00044387
0.00116597
-0.000439671
0.000983519
-0.000405308
0.000838816
-0.000351753
0.000740156
-0.000291771
0.000698082
-0.000229921
0.000713299
-0.000181999
0.000759191
-0.000166903
0.000822446
-0.000169788
0.000897616
-0.00016492
0.000978982
-0.000128346
0.00105177
-3.65307e-05
0.00109814
0.000116921
0.00111712
0.000315378
0.00111625
0.000560488
0.00114403
0.000880791
0.00125456
0.00126406
0.00145198
0.0017804
0.00195597
0.00205489
0.00223724
0.00122323
0.00185351
0.00084504
0.000399078
-0.000658463
0.0118803
-0.000504634
0.00448863
0.00073889
0.00120992
0.0016808
0.000699472
0.00255753
-3.83683e-05
0.00335306
-0.00112613
0.00382989
-0.00201232
0.00399203
-0.00260182
0.00389057
-0.00290472
0.00359353
-0.00295301
0.00317299
-0.00279041
0.00269326
-0.00247082
0.00221272
-0.00205552
0.00177825
-0.00160008
0.00141721
-0.00114485
0.00114281
-0.000742815
0.000945291
-0.000451134
0.000773511
-0.000300942
0.000589158
-0.000259521
0.000403264
-0.00025378
0.000243286
-0.000245333
0.000122379
-0.00023085
4.54293e-05
-0.000214825
1.65708e-05
-0.000201066
3.22107e-05
-0.000197642
7.67065e-05
-0.000211402
0.000139134
-0.000232218
0.000217903
-0.000243692
0.000317468
-0.000227914
0.000443498
-0.000162564
0.000580114
-1.96976e-05
0.000716804
0.000178684
0.000868558
0.000408731
0.0010748
0.000674541
0.00139144
0.000947424
0.00189246
0.00127937
0.00264369
0.00130367
0.0032258
0.000641108
0.00329384
0.000777002
0.00376254
0.00278436
0.00963158
0.00357325
0.00369973
0.00422012
0.000563044
0.00526066
-0.000341067
0.00618896
-0.000966676
0.00662644
-0.00156361
0.00661705
-0.00200295
0.00623758
-0.00222235
0.00558068
-0.00224782
0.00474847
-0.00212081
0.00384
-0.00188194
0.0029375
-0.00156833
0.00210717
-0.0012252
0.00139515
-0.000888056
0.000817881
-0.000567583
0.000386362
-0.000311299
8.94282e-05
-0.000154203
-0.000119127
-9.23904e-05
-0.000286019
-9.26323e-05
-0.000427888
-0.000111915
-0.000543062
-0.000130161
-0.000628885
-0.00014503
-0.000684862
-0.000158851
-0.000711449
-0.000174481
-0.000713412
-0.000195682
-0.000701065
-0.000223752
-0.000680787
-0.000252498
-0.000651642
-0.00027284
-0.000604614
-0.000274944
-0.000520027
-0.000247154
-0.000366861
-0.000172867
-0.000163061
-2.51181e-05
7.52449e-05
0.000170422
0.000372138
0.000377645
0.00073953
0.000580029
0.00123558
0.000783308
0.00175837
0.000780883
0.00185404
0.000545425
0.000832384
0.00179866
0.00488988
0.010225
0.0139208
0.0129839
0.0015
0.0123615
0.000281291
0.0115831
-0.00018824
0.0105166
-0.000497098
0.00918396
-0.000670348
0.00769956
-0.000737963
0.00616655
-0.000714815
0.0046736
-0.000627872
0.00329845
-0.00050679
0.00208974
-0.000359615
0.0010786
-0.000214069
0.000271361
-8.08159e-05
-0.000318297
2.20729e-05
-0.000691138
6.15397e-05
-0.000906032
6.06877e-05
-0.00103956
4.11313e-05
-0.00114322
1.10255e-05
-0.00123466
-2.04737e-05
-0.00131499
-4.98381e-05
-0.00138373
-7.62899e-05
-0.00144176
-0.000100825
-0.00149193
-0.000124316
-0.00154019
-0.000147418
-0.00159524
-0.000168705
-0.00166505
-0.000182696
-0.00175698
-0.000180908
-0.00187956
-0.000152366
-0.00204378
-8.29412e-05
-0.00225645
3.98048e-05
-0.00250525
0.000223679
-0.00282042
0.000485588
-0.00328741
0.000844629
-0.00400635
0.00129897
-0.00504063
0.00181759
-0.00651039
0.00225063
-0.00833377
0.00236881
-0.00802642
0.0014913
-0.00281074
0.00438002
0.00336066
0.00335296
0.00130834
0.00362724
-0.000462525
0.00354473
-0.000414587
0.00306695
-0.000192572
0.00236348
-3.44868e-05
0.0015479
0.000100764
0.000715464
0.00020456
-5.52174e-05
0.000263891
-0.000693314
0.00027848
-0.00116385
0.000256468
-0.00147553
0.000230858
-0.00165211
0.000198654
-0.00174841
0.000157839
-0.0018068
0.000119069
-0.00185165
8.59831e-05
-0.00189768
5.70526e-05
-0.00195011
3.19537e-05
-0.0020094
9.44661e-06
-0.00207365
-1.20451e-05
-0.00214048
-3.39953e-05
-0.0022123
-5.24929e-05
-0.00229296
-6.67697e-05
-0.00238597
-7.56885e-05
-0.00249254
-7.61335e-05
-0.00261043
-6.30237e-05
-0.00273242
-3.03715e-05
-0.00284635
3.09796e-05
-0.00294403
0.000137482
-0.00302753
0.000307176
-0.00310326
0.000561319
-0.00317624
0.000917605
-0.00324441
0.00136713
-0.00325171
0.00182489
-0.00309216
0.00209109
-0.00212446
0.0014011
-0.000219681
-0.00041348
-0.00294624
-0.000776983
0.00422235
-0.000355151
0.000886511
-0.00105325
0.000235575
-0.00159184
0.000123999
-0.00195871
0.0001743
-0.00222776
0.000234565
-0.00241397
0.000286977
-0.00253847
0.000329056
-0.00261532
0.000340736
-0.00265221
0.000315368
-0.00266112
0.000265379
-0.00264209
0.000211821
-0.00260479
0.000161351
-0.00256443
0.000117486
-0.00252929
8.3919e-05
-0.00250288
5.95774e-05
-0.00248722
4.13869e-05
-0.00248205
2.67771e-05
-0.00248647
1.38673e-05
-0.00249942
9.03814e-07
-0.00252071
-1.27112e-05
-0.00255017
-2.30352e-05
-0.0025875
-2.94427e-05
-0.00263176
-3.143e-05
-0.0026804
-2.749e-05
-0.00272859
-1.48459e-05
-0.00276881
9.85246e-06
-0.00278756
4.97241e-05
-0.00276503
0.000114949
-0.00267724
0.000219379
-0.00249278
0.000376858
-0.0021837
0.000608528
-0.00174342
0.000926846
-0.00113935
0.00122081
-3.74656e-05
0.000989196
0.00183227
-0.00046864
0.00346623
-0.00204744
0.000611359
-0.00786786
-0.0111272
-0.00684988
-0.00593559
-0.00568115
-0.00554203
-0.00535494
-0.00510921
-0.00481221
-0.00447388
-0.00412429
-0.00380017
-0.00352593
-0.00330505
-0.0031344
-0.00300739
-0.00291373
-0.00284423
-0.00279274
-0.00275574
-0.00273158
-0.00272035
-0.00272278
-0.00273561
-0.00275496
-0.00277646
-0.00279419
-0.0027995
-0.00278037
-0.00272164
-0.00259799
-0.00237025
-0.0019854
-0.00136926
-0.000435221
0.000792277
0.00178788
0.00132593
-0.0007157
)
;

boundaryField
{
    floor
    {
        type            calculated;
        value           nonuniform List<scalar> 
29
(
0
0
0
0
0
0
0
0
0
0
0
0
0
0
0
0
0
0
0
0
-4.98277e-06
-1.26611e-05
-1.91109e-05
-2.49767e-05
-2.07304e-06
-3.68233e-06
-1.06337e-05
-1.1413e-05
-1.02418e-05
)
;
    }
    ceiling
    {
        type            calculated;
        value           nonuniform List<scalar> 
43
(
-5.89988e-05
-5.67795e-05
-5.49987e-05
-2.77775e-05
-1.88683e-05
-1.51197e-05
-1.27949e-05
-1.11594e-05
-1.0024e-05
-9.27552e-06
-8.86327e-06
-8.75175e-06
-8.85862e-06
-9.06711e-06
-9.29989e-06
-9.5263e-06
-9.73887e-06
-9.93324e-06
-1.00997e-05
-1.02252e-05
-1.03001e-05
-1.03208e-05
-1.02864e-05
-1.02085e-05
-1.00919e-05
-9.93978e-06
-9.75465e-06
-9.53787e-06
-9.28887e-06
-9.00757e-06
-8.6985e-06
-8.36255e-06
-8.00051e-06
-7.61195e-06
-7.19535e-06
-6.68646e-06
-6.4132e-06
-6.68965e-06
-5.80972e-06
-3.51446e-06
6.28949e-06
3.86689e-06
-8.47096e-05
)
;
    }
    sWall
    {
        type            calculated;
        value           uniform -0.000279167;
    }
    nWall
    {
        type            calculated;
        value           nonuniform List<scalar> 6(-5.40769e-05 -6.45362e-05 -6.96311e-05 -8.4188e-05 -9.13715e-05 -0.000100829);
    }
    sideWalls
    {
        type            empty;
        value           nonuniform 0();
    }
    glass1
    {
        type            calculated;
        value           nonuniform List<scalar> 9(-5.97546e-05 -0.000160592 -0.000245419 -0.000317687 -0.000379107 -0.000430953 -0.000478302 -0.000535645 -0.000599697);
    }
    glass2
    {
        type            calculated;
        value           nonuniform List<scalar> 2(-0.000294962 -0.000325794);
    }
    sun
    {
        type            calculated;
        value           uniform 0;
    }
    heatsource1
    {
        type            calculated;
        value           nonuniform List<scalar> 3(2.05017e-07 2.04906e-07 2.04926e-07);
    }
    heatsource2
    {
        type            calculated;
        value           nonuniform List<scalar> 4(5.14238e-08 5.15225e-08 0 0);
    }
    Table_master
    {
        type            calculated;
        value           nonuniform List<scalar> 9(-1.53779e-07 -1.53874e-07 -1.53907e-07 -1.53929e-07 -1.53944e-07 -1.53955e-07 -1.53959e-07 -1.53953e-07 -1.53919e-07);
    }
    Table_slave
    {
        type            calculated;
        value           nonuniform List<scalar> 9(1.53642e-07 1.53669e-07 1.5365e-07 1.53636e-07 1.53634e-07 1.53636e-07 1.53656e-07 1.53704e-07 1.53791e-07);
    }
    inlet
    {
        type            calculated;
        value           uniform -0.00624068;
    }
    outlet
    {
        type            calculated;
        value           nonuniform List<scalar> 2(0.00820603 0.00331615);
    }
}


// ************************************************************************* //
