/*--------------------------------*- C++ -*----------------------------------*\
  =========                 |
  \\      /  F ield         | OpenFOAM: The Open Source CFD Toolbox
   \\    /   O peration     | Website:  https://openfoam.org
    \\  /    A nd           | Version:  6
     \\/     M anipulation  |
\*---------------------------------------------------------------------------*/
FoamFile
{
    version     2.0;
    format      ascii;
    class       volScalarField;
    location    "160";
    object      alphat;
}
// * * * * * * * * * * * * * * * * * * * * * * * * * * * * * * * * * * * * * //

dimensions      [1 -1 -1 0 0 0 0];

internalField   nonuniform List<scalar> 
459
(
0.00162263
0.0018189
0.001994
0.00189088
0.00159695
0.00135868
0.00112352
0.000991239
0.000891885
0.000814398
0.000763958
0.000731617
0.000708342
0.000689792
0.00067192
0.000492636
0.000577187
0.000599245
0.000552175
0.000481503
0.000419454
0.000306462
0.000214183
0.00020382
0.000213351
0.000222561
0.000215427
0.000206588
0.000224166
0.00027222
0.000347963
0.000430602
0.000427569
0.000383343
0.00166396
0.00315656
0.00461147
0.00635275
0.00674984
0.00627006
0.00517925
0.0037661
0.00309292
0.00311697
0.00315908
0.00293864
0.00261393
0.00219116
0.00159242
0.000731946
0.000554886
0.000686513
0.00132251
0.00156289
0.00168403
0.00149182
0.0010624
0.000646705
0.000459459
0.000452221
0.000538316
0.00056291
0.000426133
0.000284789
0.000274041
0.000404519
0.000955924
0.00132809
0.00148878
0.000556133
0.00242735
0.00311173
0.00347629
0.00398392
0.00489731
0.00568212
0.00604526
0.00587038
0.00452551
0.00381749
0.00401944
0.00382339
0.00332775
0.00273605
0.00206204
0.00139809
0.000807001
0.000965992
0.0027128
0.00248726
0.00211921
0.00170728
0.00133056
0.000437886
0.000361592
0.000325212
0.000303158
0.000285743
0.000268285
0.000250393
0.000323351
0.000602377
0.00140373
0.00164835
0.00136608
0.000606589
0.00380845
0.00435651
0.00427105
0.00415133
0.00436758
0.00497679
0.00569949
0.00620778
0.00577194
0.00472957
0.00482477
0.00486583
0.00434648
0.00363343
0.00280382
0.00198011
0.00136189
0.00108618
0.00256398
0.00281892
0.00257616
0.00217347
0.00173053
0.00127262
0.000898557
0.000917647
0.000945182
0.000977939
0.00101443
0.00105419
0.00109181
0.00110762
0.00109865
0.0015395
0.0020601
0.00257828
0.00107031
0.00412814
0.00524835
0.00493142
0.00450785
0.00441574
0.0048098
0.00555185
0.00630992
0.00634283
0.00564496
0.0057282
0.00619628
0.00612311
0.00587043
0.00556542
0.00521693
0.00488453
0.00465955
0.00467231
0.00458876
0.00446167
0.00430948
0.00419094
0.00410365
0.00406688
0.00413325
0.00422589
0.0043272
0.00441687
0.00447645
0.00450195
0.00447521
0.00441573
0.00433299
0.00402292
0.00369016
0.00302142
0.00132905
0.00118542
0.00121156
0.00437057
0.00579409
0.00523282
0.00454081
0.004373
0.00472789
0.00551098
0.00639506
0.00660355
0.006079
0.00627395
0.00698143
0.00717375
0.00716568
0.00711858
0.00701664
0.00684011
0.00660359
0.00633724
0.00605451
0.00580908
0.0056286
0.00550199
0.00540548
0.0053286
0.00527686
0.00524879
0.00523346
0.00521089
0.00516532
0.00510389
0.00506098
0.00507263
0.0051562
0.00528886
0.00522228
0.00486285
0.00411752
0.00296001
0.00143703
0.00462606
0.00567652
0.00447569
0.00433217
0.0043391
0.0047539
0.00556752
0.00645476
0.00667906
0.00626099
0.00645747
0.00724071
0.00757744
0.00767935
0.0077278
0.00770666
0.00758717
0.00737077
0.0070893
0.00679215
0.00652968
0.00632635
0.0061714
0.00603816
0.00590822
0.00578627
0.0056848
0.00560084
0.00550915
0.00538009
0.0052167
0.0050757
0.00503249
0.00511333
0.00525696
0.00529549
0.00500055
0.00452811
0.00372496
0.00157525
0.00496124
0.00550556
0.00449736
0.00407985
0.0045639
0.00502543
0.00573492
0.0064929
0.00669379
0.00635662
0.00645664
0.0071179
0.00754433
0.00771068
0.00780364
0.00781836
0.00773442
0.00755048
0.00729319
0.00700987
0.00675096
0.00654895
0.00640848
0.00631382
0.00624271
0.00618187
0.0061311
0.0060886
0.00602152
0.00585969
0.00554385
0.00508821
0.00458282
0.00407889
0.00361819
0.00322374
0.00291252
0.00262745
0.00233575
0.00166296
0.00551003
0.00643726
0.00826609
0.00423175
0.0048966
0.00570281
0.00613654
0.00666598
0.00681628
0.00647887
0.00632393
0.00664669
0.0070557
0.00728597
0.00739552
0.00741843
0.00735628
0.00720904
0.00699165
0.00673699
0.00648689
0.00627862
0.00613702
0.00607681
0.00610555
0.006213
0.00637251
0.00655648
0.00674693
0.00691777
0.00702935
0.00703363
0.00685287
0.00649867
0.00600753
0.00541458
0.00475566
0.00429039
0.00400154
0.00183427
0.0133462
0.00688154
0.00460861
0.00657589
0.00681983
0.00708486
0.00708097
0.0066159
0.00627797
0.00622285
0.00631681
0.00638911
0.00641431
0.00639687
0.00633521
0.00622487
0.0060671
0.00587423
0.00566839
0.00547603
0.00532353
0.00523758
0.00524885
0.00538758
0.00566708
0.00606388
0.00652537
0.00699184
0.00736778
0.00757224
0.00762418
0.00755015
0.00740651
0.00724757
0.00702969
0.00657904
0.00601111
0.00184058
0.00550826
0.00381995
0.00618504
0.00673948
0.00686581
0.0069266
0.00656348
0.00598373
0.00551978
0.00522094
0.00503803
0.00487716
0.004738
0.00462376
0.00452613
0.00443245
0.0043317
0.00421849
0.00409449
0.00396779
0.00385127
0.00376188
0.00372278
0.00376565
0.00392909
0.00424537
0.00471717
0.00530156
0.00589852
0.00635907
0.00665041
0.00677894
0.00677093
0.00664681
0.00637847
0.00563538
0.00498082
0.00165776
0.00263036
0.00317784
0.00382625
0.0019083
0.00190713
0.00208445
0.00212153
0.00206859
0.00194203
0.00181585
0.00170633
0.00161246
0.00153044
0.00146017
0.00139911
0.00134493
0.00129601
0.00125108
0.00120904
0.00116901
0.00113035
0.00109274
0.00105621
0.00102117
0.000988514
0.000959819
0.000937653
0.000925902
0.000929685
0.000954149
0.00100582
0.00109023
0.0011972
0.00130704
0.00139738
0.00144846
0.00144098
0.00141657
0.00140314
0.00131265
)
;

boundaryField
{
    floor
    {
        type            compressible::alphatWallFunction;
        Prt             0.85;
        value           nonuniform List<scalar> 
29
(
9.50327e-05
6.80708e-05
8.09137e-05
8.42235e-05
7.71498e-05
6.6382e-05
5.67519e-05
3.87419e-05
2.3298e-05
2.15017e-05
2.31337e-05
2.47083e-05
2.34947e-05
2.19799e-05
2.49789e-05
3.30386e-05
4.53686e-05
5.84376e-05
5.79671e-05
5.10171e-05
5.10165e-05
7.77113e-05
8.52997e-05
0.00015209
9.50316e-05
6.80699e-05
9.7182e-05
0.000137461
0.000154344
)
;
    }
    ceiling
    {
        type            compressible::alphatWallFunction;
        Prt             0.85;
        value           nonuniform List<scalar> 
43
(
0.000358119
0.000426666
0.00050629
0.000265301
0.000265161
0.000288273
0.000293082
0.000286222
0.000269734
0.000253177
0.000238703
0.000226217
0.00021524
0.000205783
0.000197524
0.000190161
0.000183485
0.000177326
0.00017154
0.00016601
0.000160647
0.000155409
0.000150302
0.000145384
0.000140783
0.000136727
0.000133584
0.000131914
0.000132452
0.000135924
0.000143219
0.000155047
0.00016989
0.000184979
0.000197282
0.000204204
0.000203199
0.000199892
0.000198063
0.000185749
0.000707391
0.00081534
0.000707089
)
;
    }
    sWall
    {
        type            compressible::alphatWallFunction;
        Prt             0.85;
        value           uniform 0.000357013;
    }
    nWall
    {
        type            compressible::alphatWallFunction;
        Prt             0.85;
        value           nonuniform List<scalar> 6(0.000171463 0.000202185 0.000220801 0.00025599 0.000231841 0.000185396);
    }
    sideWalls
    {
        type            empty;
    }
    glass1
    {
        type            compressible::alphatWallFunction;
        Prt             0.85;
        value           nonuniform List<scalar> 9(0.000222428 0.00022804 0.000326463 0.00049715 0.000535574 0.000564504 0.000594824 0.000634381 0.000698673);
    }
    glass2
    {
        type            compressible::alphatWallFunction;
        Prt             0.85;
        value           nonuniform List<scalar> 2(0.00023088 0.000253506);
    }
    sun
    {
        type            compressible::alphatWallFunction;
        Prt             0.85;
        value           nonuniform List<scalar> 
14
(
0.000227449
0.000253439
0.000276377
0.000262888
0.000223994
0.000191878
0.000159552
0.000141035
0.00012694
0.00011582
0.000108514
0.000103799
0.000100391
9.76661e-05
)
;
    }
    heatsource1
    {
        type            compressible::alphatWallFunction;
        Prt             0.85;
        value           nonuniform List<scalar> 3(0.000187947 0.000168244 0.00017187);
    }
    heatsource2
    {
        type            compressible::alphatWallFunction;
        Prt             0.85;
        value           nonuniform List<scalar> 4(0.000104005 7.76982e-05 7.76973e-05 0.000114913);
    }
    Table_master
    {
        type            compressible::alphatWallFunction;
        Prt             0.85;
        value           nonuniform List<scalar> 9(5.97651e-05 4.77255e-05 4.18739e-05 3.82863e-05 3.54293e-05 3.25419e-05 2.9555e-05 4.15315e-05 8.48163e-05);
    }
    Table_slave
    {
        type            compressible::alphatWallFunction;
        Prt             0.85;
        value           nonuniform List<scalar> 9(0.000128054 0.000130772 0.000134682 0.000139316 0.000144459 0.000150038 0.000155295 0.000157496 0.000156244);
    }
    inlet
    {
        type            fixedValue;
        value           uniform 1.94e-05;
    }
    outlet
    {
        type            zeroGradient;
    }
}


// ************************************************************************* //
