/*--------------------------------*- C++ -*----------------------------------*\
  =========                 |
  \\      /  F ield         | OpenFOAM: The Open Source CFD Toolbox
   \\    /   O peration     | Website:  https://openfoam.org
    \\  /    A nd           | Version:  6
     \\/     M anipulation  |
\*---------------------------------------------------------------------------*/
FoamFile
{
    version     2.0;
    format      ascii;
    class       volScalarField;
    location    "160";
    object      epsilon;
}
// * * * * * * * * * * * * * * * * * * * * * * * * * * * * * * * * * * * * * //

dimensions      [0 2 -3 0 0 0 0];

internalField   nonuniform List<scalar> 
459
(
0.000968794
0.00136223
0.001794
0.00152498
0.000916009
0.000563198
0.000318121
0.000218362
0.000159015
0.000121041
9.99008e-05
8.77352e-05
7.96218e-05
7.35299e-05
6.7967e-05
2.67445e-05
4.30168e-05
4.81398e-05
3.768e-05
2.49984e-05
1.6524e-05
6.45587e-06
2.19347e-06
1.88615e-06
2.16186e-06
2.45456e-06
2.22667e-06
1.96378e-06
2.50706e-06
4.48998e-06
9.37688e-06
1.77808e-05
1.74106e-05
1.2551e-05
0.00104896
0.00253938
0.00411308
0.0056259
0.00518176
0.00357591
0.00156719
0.000574986
0.000234239
0.000110521
7.44025e-05
6.82084e-05
7.07592e-05
7.36234e-05
7.35469e-05
8.78582e-05
3.82413e-05
7.24249e-05
8.67154e-05
6.39135e-05
4.63967e-05
3.6522e-05
2.39002e-05
1.14243e-05
5.77788e-06
4.69746e-06
5.30944e-06
5.2208e-06
3.60916e-06
2.35649e-06
3.78481e-06
1.38004e-05
3.33685e-05
5.56659e-05
7.06617e-05
3.83528e-05
0.00327193
0.00465363
0.0043522
0.00405992
0.00403365
0.00375884
0.00315668
0.00233112
0.000723064
0.000204295
9.47615e-05
7.67461e-05
8.07151e-05
8.97794e-05
9.86791e-05
0.000107843
0.000117784
0.000201887
0.000171374
9.80672e-05
8.09863e-05
7.63194e-05
7.63378e-05
1.87792e-05
1.05614e-05
7.67955e-06
6.21889e-06
5.20634e-06
4.30825e-06
3.50113e-06
7.51497e-06
4.87683e-05
8.58906e-05
0.000109915
0.000116125
4.9794e-05
0.012676
0.0103055
0.00751362
0.00549999
0.00427485
0.00362394
0.00315636
0.00263171
0.00160305
0.000429769
0.000141072
9.29209e-05
9.05858e-05
9.94431e-05
0.000114589
0.000141333
0.00019345
0.000287282
0.000158918
8.86046e-05
7.56807e-05
7.84743e-05
9.04972e-05
0.000114783
0.000162762
0.000173355
0.000189432
0.000209819
0.000234198
0.000262838
0.000291992
0.000304837
0.000297429
0.00019616
0.000168177
0.000268742
0.000274117
0.0161215
0.0135665
0.00831992
0.00534046
0.00389079
0.00322047
0.00285712
0.00251086
0.00173821
0.000590156
0.000194921
0.000112018
9.98533e-05
0.000101325
0.000103589
0.000104244
0.000103817
9.90909e-05
7.8493e-05
6.91412e-05
6.78142e-05
7.15753e-05
7.86667e-05
8.85634e-05
0.000100774
0.000114213
0.000132135
0.000155573
0.00018494
0.000219896
0.000259503
0.000298885
0.000326155
0.000328269
0.000295951
0.000288551
0.000332974
0.000525258
0.000372719
0.00039855
0.0191089
0.0171703
0.00830697
0.0043709
0.00306639
0.00261555
0.00242354
0.00223119
0.00160419
0.000611815
0.000219988
0.000128965
0.000117321
0.00012246
0.000127243
0.000126612
0.000119429
0.000107625
9.47097e-05
8.5534e-05
8.14154e-05
8.20869e-05
8.64236e-05
9.38615e-05
0.000104738
0.000120616
0.00014396
0.000176735
0.00022023
0.000274769
0.000340618
0.000420111
0.000516938
0.000639458
0.000810117
0.000974791
0.00098456
0.000838194
0.000567743
0.000664582
0.0226312
0.0217452
0.0081184
0.00284917
0.00225502
0.00208732
0.00202254
0.00190781
0.00138835
0.00057927
0.000225624
0.00014281
0.000138294
0.000151952
0.00016411
0.000168354
0.000162862
0.000149587
0.000133148
0.000118377
0.000108257
0.000103466
0.000103384
0.000107692
0.000117381
0.000135163
0.000164641
0.000209154
0.000270614
0.000348984
0.000445428
0.000569484
0.000742045
0.000987254
0.00131158
0.00165553
0.00181167
0.00179257
0.000927623
0.000876453
0.027877
0.0303647
0.0180325
0.00270062
0.00180797
0.00176131
0.00172141
0.00161591
0.00118683
0.000540884
0.000238865
0.000166596
0.000169288
0.000191555
0.000211426
0.000221519
0.000219446
0.000206412
0.000186853
0.000166307
0.000149039
0.000136979
0.000130384
0.000129451
0.000135843
0.000153508
0.000188038
0.000245074
0.000326355
0.000424143
0.000520987
0.000601749
0.000667896
0.0007262
0.000786917
0.000861277
0.00096216
0.00107972
0.00119842
0.00103413
0.0381347
0.0606398
0.0736206
0.0113387
0.00200782
0.00170636
0.00156157
0.00141848
0.00105101
0.000540855
0.000306152
0.000235371
0.000231131
0.000249371
0.000268965
0.000280467
0.000280402
0.000268714
0.000248435
0.000224413
0.000201204
0.000181692
0.000167139
0.000158261
0.000156952
0.000167256
0.000195309
0.0002495
0.000338785
0.000469508
0.000641139
0.000842994
0.001048
0.00122515
0.00135702
0.00145156
0.00154527
0.00176536
0.00213654
0.00139041
0.175723
0.0495998
0.00412015
0.00196516
0.00157766
0.00137617
0.00101025
0.000639499
0.000450875
0.000372231
0.00034595
0.000341377
0.000343548
0.000344012
0.000338414
0.00032526
0.000305365
0.000281173
0.000255711
0.000231623
0.000210771
0.000194467
0.000184233
0.000182437
0.000192982
0.000221415
0.000274412
0.00035839
0.000477119
0.000631293
0.000812629
0.00100198
0.00118712
0.00136798
0.00148122
0.00129048
0.00163056
0.00140302
0.037912
0.00535807
0.00249703
0.00184923
0.00161079
0.00140843
0.0010642
0.000794234
0.000636907
0.000550044
0.000500964
0.000470339
0.000447342
0.000426492
0.000405054
0.000381815
0.000356584
0.000329923
0.00030286
0.000276592
0.000252276
0.000230993
0.000213927
0.000202675
0.000199685
0.000208682
0.000234816
0.00028366
0.000359614
0.00046335
0.000588845
0.000719724
0.000833754
0.000905078
0.000892526
0.000819974
0.00117563
0.00102545
0.00413434
0.00728441
0.0127129
0.00158008
0.00157769
0.00205996
0.002171
0.00200993
0.00166174
0.00135766
0.00112609
0.000950025
0.000812135
0.00070518
0.000620232
0.000550821
0.000492773
0.000443172
0.000399884
0.000361368
0.000326593
0.000294972
0.000266277
0.000240563
0.000218141
0.000199623
0.000186051
0.000179091
0.000181247
0.000195889
0.000229392
0.000292059
0.000386688
0.000503167
0.000614854
0.000684784
0.000674207
0.000640383
0.000622145
0.000509405
)
;

boundaryField
{
    floor
    {
        Cmu             0.09;
        kappa           0.41;
        E               9.8;
        type            epsilonWallFunction;
        value           nonuniform List<scalar> 
29
(
6.7967e-05
2.67445e-05
4.30168e-05
4.81398e-05
3.768e-05
2.49984e-05
1.6524e-05
6.45587e-06
2.19347e-06
1.88615e-06
2.16186e-06
2.45456e-06
2.22667e-06
1.96378e-06
2.50706e-06
4.48998e-06
9.37688e-06
1.77808e-05
1.74106e-05
1.2551e-05
1.2551e-05
3.83528e-05
4.9794e-05
0.000274117
6.7967e-05
2.67445e-05
7.24249e-05
0.000201887
0.000287282
)
;
    }
    ceiling
    {
        Cmu             0.09;
        kappa           0.41;
        E               9.8;
        type            epsilonWallFunction;
        value           nonuniform List<scalar> 
43
(
0.00413434
0.00728441
0.0127129
0.00158008
0.00157769
0.00205996
0.002171
0.00200993
0.00166174
0.00135766
0.00112609
0.000950025
0.000812135
0.00070518
0.000620232
0.000550821
0.000492773
0.000443172
0.000399884
0.000361368
0.000326593
0.000294972
0.000266277
0.000240563
0.000218141
0.000199623
0.000186051
0.000179091
0.000181247
0.000195889
0.000229392
0.000292059
0.000386688
0.000503167
0.000614854
0.000684784
0.000674207
0.000640383
0.000622145
0.000509405
0.0381347
0.0606398
0.037912
)
;
    }
    sWall
    {
        Cmu             0.09;
        kappa           0.41;
        E               9.8;
        type            epsilonWallFunction;
        value           uniform 0.00413434;
    }
    nWall
    {
        Cmu             0.09;
        kappa           0.41;
        E               9.8;
        type            epsilonWallFunction;
        value           nonuniform List<scalar> 6(0.00039855 0.000664582 0.000876453 0.00140302 0.00102545 0.000509405);
    }
    sideWalls
    {
        type            empty;
    }
    glass1
    {
        Cmu             0.09;
        kappa           0.41;
        E               9.8;
        type            epsilonWallFunction;
        value           nonuniform List<scalar> 9(0.000968794 0.00104896 0.00327193 0.012676 0.0161215 0.0191089 0.0226312 0.027877 0.0381347);
    }
    glass2
    {
        Cmu             0.09;
        kappa           0.41;
        E               9.8;
        type            epsilonWallFunction;
        value           nonuniform List<scalar> 2(0.00103413 0.00139041);
    }
    sun
    {
        Cmu             0.09;
        kappa           0.41;
        E               9.8;
        type            epsilonWallFunction;
        value           nonuniform List<scalar> 
14
(
0.000968794
0.00136223
0.001794
0.00152498
0.000916009
0.000563198
0.000318121
0.000218362
0.000159015
0.000121041
9.99008e-05
8.77352e-05
7.96218e-05
7.35299e-05
)
;
    }
    heatsource1
    {
        Cmu             0.09;
        kappa           0.41;
        E               9.8;
        type            epsilonWallFunction;
        value           nonuniform List<scalar> 3(0.000525258 0.000372719 0.00039855);
    }
    heatsource2
    {
        Cmu             0.09;
        kappa           0.41;
        E               9.8;
        type            epsilonWallFunction;
        value           nonuniform List<scalar> 4(8.78582e-05 3.82413e-05 3.82413e-05 0.000117784);
    }
    Table_master
    {
        Cmu             0.09;
        kappa           0.41;
        E               9.8;
        type            epsilonWallFunction;
        value           nonuniform List<scalar> 9(1.87792e-05 1.05614e-05 7.67955e-06 6.21889e-06 5.20634e-06 4.30825e-06 3.50113e-06 7.51497e-06 4.87683e-05);
    }
    Table_slave
    {
        Cmu             0.09;
        kappa           0.41;
        E               9.8;
        type            epsilonWallFunction;
        value           nonuniform List<scalar> 9(0.000162762 0.000173355 0.000189432 0.000209819 0.000234198 0.000262838 0.000291992 0.000304837 0.000297429);
    }
    inlet
    {
        type            turbulentMixingLengthDissipationRateInlet;
        mixingLength    0.01;
        phi             phi;
        k               k;
        value           uniform 3.77336e-06;
    }
    outlet
    {
        type            zeroGradient;
    }
}


// ************************************************************************* //
