/*--------------------------------*- C++ -*----------------------------------*\
  =========                 |
  \\      /  F ield         | OpenFOAM: The Open Source CFD Toolbox
   \\    /   O peration     | Website:  https://openfoam.org
    \\  /    A nd           | Version:  6
     \\/     M anipulation  |
\*---------------------------------------------------------------------------*/
FoamFile
{
    version     2.0;
    format      ascii;
    class       volScalarField;
    location    "160";
    object      nut;
}
// * * * * * * * * * * * * * * * * * * * * * * * * * * * * * * * * * * * * * //

dimensions      [0 2 -1 0 0 0 0];

internalField   nonuniform List<scalar> 
459
(
0.00139884
0.00156711
0.00171767
0.00162702
0.00137274
0.00116732
0.000964989
0.000851275
0.000765888
0.000699304
0.000655966
0.000628183
0.00060819
0.000592261
0.000576926
0.00042276
0.000495306
0.00051424
0.000473849
0.000413186
0.000359915
0.000262872
0.000183635
0.000174718
0.000182873
0.000190758
0.000184636
0.000177056
0.000192119
0.00023332
0.000298272
0.000369134
0.000366532
0.000328635
0.00143637
0.00272775
0.00398471
0.00548587
0.00582259
0.0054012
0.00445462
0.00323656
0.00265697
0.00267706
0.00271298
0.00252357
0.00224466
0.00188156
0.00136736
0.000628453
0.000476316
0.000589231
0.00113505
0.00134134
0.00144534
0.00128038
0.000911687
0.00055482
0.000394057
0.000387778
0.000461538
0.000482556
0.000365272
0.000244103
0.000234889
0.000346804
0.000819809
0.00113889
0.00127654
0.000476812
0.00209885
0.00269083
0.00300598
0.00344452
0.00423207
0.0049056
0.00521272
0.00505527
0.00389028
0.00327963
0.00345248
0.00328389
0.0028581
0.00234982
0.00177086
0.00120058
0.000692928
0.000829304
0.00232892
0.00213536
0.00181949
0.00146583
0.00114231
0.000375687
0.000310171
0.000278931
0.00025999
0.000245033
0.000230039
0.000214673
0.000277213
0.000516712
0.00120446
0.00141376
0.00117147
0.000520124
0.00329642
0.00376818
0.0036937
0.00358991
0.00377602
0.00430021
0.00491991
0.00535186
0.00496766
0.00406472
0.00414501
0.00417997
0.00373373
0.0031211
0.00240834
0.0017007
0.00116963
0.0009328
0.00220181
0.00242087
0.00221254
0.00186679
0.00148639
0.00109311
0.000771825
0.000788228
0.000811885
0.000840029
0.000871381
0.000905538
0.000937848
0.000951405
0.000943663
0.00132214
0.00176873
0.00221293
0.000918519
0.00357151
0.00453565
0.00426135
0.00389615
0.00381697
0.00415649
0.00479417
0.00544228
0.00546151
0.0048529
0.00492217
0.00532391
0.005261
0.00504385
0.00478165
0.00448205
0.00419628
0.00400285
0.00401373
0.003942
0.00383293
0.00370227
0.00360048
0.0035255
0.00349391
0.00355092
0.00363051
0.00371754
0.00379458
0.00384575
0.00386762
0.00384456
0.00379331
0.00372192
0.00345499
0.00316852
0.00259388
0.00114095
0.00101767
0.00104049
0.00377974
0.00500357
0.00451916
0.00392319
0.00377941
0.00408561
0.00475914
0.00551613
0.00568637
0.00522707
0.00539223
0.00599974
0.00616506
0.0061582
0.00611767
0.0060299
0.00587798
0.00567453
0.00544552
0.00520252
0.00499163
0.00483654
0.00472773
0.00464476
0.00457864
0.00453412
0.00450995
0.00449673
0.0044773
0.00443812
0.00438531
0.00434839
0.00435828
0.00442987
0.00454355
0.0044859
0.00417684
0.0035361
0.00254164
0.00123395
0.00399902
0.00490028
0.00386483
0.00374293
0.00374985
0.00410767
0.00480742
0.00556693
0.00575125
0.00538449
0.0055511
0.00622396
0.00651354
0.00660137
0.00664313
0.00662488
0.00652198
0.00633572
0.00609357
0.005838
0.00561229
0.00543743
0.00530414
0.00518949
0.00507767
0.0049727
0.00488535
0.00481307
0.00473419
0.00462327
0.0044829
0.00436178
0.00432467
0.00439415
0.00451761
0.00455081
0.00429746
0.00389135
0.00319925
0.00135285
0.00428683
0.00475215
0.0038834
0.00352491
0.0039435
0.00434131
0.00495089
0.00559897
0.00576409
0.00546794
0.00555182
0.00611999
0.00648685
0.00663026
0.00671045
0.00672315
0.00665085
0.00649246
0.00627097
0.00602712
0.00580429
0.0056304
0.00550942
0.00542781
0.00536641
0.00531382
0.00526989
0.00523307
0.00517523
0.00503611
0.00476478
0.00437339
0.00393923
0.00350627
0.00311041
0.00277145
0.002504
0.00225898
0.00200819
0.00142973
0.0047588
0.00555453
0.00713226
0.00365513
0.00422977
0.00492496
0.00529633
0.00574766
0.00587025
0.00557495
0.00543988
0.00571704
0.00606892
0.00626727
0.00636177
0.0063816
0.0063281
0.00620126
0.00601402
0.00579469
0.0055793
0.00539988
0.00527781
0.00522572
0.00525008
0.00534208
0.00547879
0.00563649
0.00579979
0.00594636
0.00604221
0.00604606
0.00589101
0.00558695
0.00516518
0.00465581
0.00408956
0.00368972
0.00344156
0.00157798
0.0114999
0.00593998
0.00397934
0.00567712
0.00588495
0.00610884
0.00609949
0.00569574
0.00540344
0.00535546
0.00543617
0.0054984
0.00552014
0.00550515
0.00545203
0.00535693
0.00522096
0.00505474
0.00487734
0.00471153
0.00458001
0.00450574
0.00451508
0.00463401
0.00487395
0.00521469
0.00561096
0.0060115
0.00633427
0.00650977
0.00655438
0.00649088
0.00636767
0.00623131
0.00604417
0.00565667
0.00516837
0.00158267
0.00475021
0.0032967
0.00533849
0.00581682
0.00592402
0.00597264
0.00565597
0.00515458
0.00475402
0.00449618
0.00433841
0.00419972
0.00407976
0.00398127
0.00389708
0.00381627
0.00372936
0.00363169
0.00352473
0.00341542
0.00331488
0.00323768
0.00320374
0.00324033
0.00338061
0.00365233
0.00405775
0.00455988
0.00507274
0.00546825
0.00571833
0.00582857
0.00582156
0.00571482
0.00548409
0.0048452
0.00428246
0.00142548
0.00226946
0.00274112
0.00330038
0.00164674
0.0016458
0.0017988
0.00183049
0.00178394
0.00167429
0.00156521
0.00147063
0.00138961
0.00131884
0.00125822
0.00120553
0.00115879
0.00111658
0.0010778
0.00104153
0.00100698
0.000973612
0.000941147
0.00090961
0.000879359
0.000851163
0.000826375
0.000807208
0.000797004
0.000800168
0.000821124
0.000865483
0.000937985
0.00102987
0.00112423
0.00120181
0.00124565
0.00123915
0.0012181
0.00120652
0.00112879
)
;

boundaryField
{
    floor
    {
        type            nutkWallFunction;
        Cmu             0.09;
        kappa           0.41;
        E               9.8;
        value           nonuniform List<scalar> 
29
(
6.94634e-05
4.97519e-05
5.91258e-05
6.15422e-05
5.63791e-05
4.85172e-05
4.14841e-05
2.83251e-05
1.70386e-05
1.57244e-05
1.69155e-05
1.8065e-05
1.71782e-05
1.60716e-05
1.82616e-05
2.41468e-05
3.31472e-05
4.26836e-05
4.23403e-05
3.72715e-05
3.72714e-05
5.67481e-05
6.22877e-05
0.000111073
6.94634e-05
4.97519e-05
7.10113e-05
0.000100431
0.000112786
)
;
    }
    ceiling
    {
        type            nutkWallFunction;
        Cmu             0.09;
        kappa           0.41;
        E               9.8;
        value           nonuniform List<scalar> 
43
(
0.000262608
0.000312803
0.000371178
0.000194568
0.000194472
0.000211423
0.000214917
0.000209791
0.00019765
0.000185484
0.00017486
0.0001657
0.000157651
0.000150716
0.000144659
0.00013926
0.000134364
0.000129847
0.000125603
0.000121547
0.000117613
0.000113771
0.000110024
0.000106416
0.000103041
0.000100063
9.77542e-05
9.65235e-05
9.69075e-05
9.94371e-05
0.000104761
0.000113399
0.000124239
0.000135258
0.00014424
0.00014929
0.000148548
0.000146126
0.000144784
0.000135792
0.000519261
0.000597976
0.000518288
)
;
    }
    sWall
    {
        type            nutkWallFunction;
        Cmu             0.09;
        kappa           0.41;
        E               9.8;
        value           uniform 0.000262669;
    }
    nWall
    {
        type            nutkWallFunction;
        Cmu             0.09;
        kappa           0.41;
        E               9.8;
        value           nonuniform List<scalar> 6(0.000125469 0.000147892 0.000161508 0.000187411 0.000169756 0.000135802);
    }
    sideWalls
    {
        type            empty;
    }
    glass1
    {
        type            nutkWallFunction;
        Cmu             0.09;
        kappa           0.41;
        E               9.8;
        value           nonuniform List<scalar> 9(0.000166932 0.000171195 0.000244569 0.000371385 0.000399757 0.000421083 0.00044341 0.000472528 0.000519865);
    }
    glass2
    {
        type            nutkWallFunction;
        Cmu             0.09;
        kappa           0.41;
        E               9.8;
        value           nonuniform List<scalar> 2(0.000170279 0.000186958);
    }
    sun
    {
        type            nutkWallFunction;
        Cmu             0.09;
        kappa           0.41;
        E               9.8;
        value           nonuniform List<scalar> 
14
(
0.000166741
0.000185685
0.000202452
0.000192376
0.000163779
0.000140244
0.000116602
0.000103069
9.27698e-05
8.46457e-05
7.93085e-05
7.58647e-05
7.33753e-05
7.13853e-05
)
;
    }
    heatsource1
    {
        type            nutkWallFunction;
        Cmu             0.09;
        kappa           0.41;
        E               9.8;
        value           nonuniform List<scalar> 3(0.000137144 0.000122769 0.00012546);
    }
    heatsource2
    {
        type            nutkWallFunction;
        Cmu             0.09;
        kappa           0.41;
        E               9.8;
        value           nonuniform List<scalar> 4(7.59036e-05 5.66914e-05 5.66913e-05 8.38691e-05);
    }
    Table_master
    {
        type            nutkWallFunction;
        Cmu             0.09;
        kappa           0.41;
        E               9.8;
        value           nonuniform List<scalar> 9(4.35849e-05 3.47982e-05 3.0528e-05 2.79097e-05 2.58246e-05 2.37177e-05 2.15382e-05 3.0265e-05 6.1842e-05);
    }
    Table_slave
    {
        type            nutkWallFunction;
        Cmu             0.09;
        kappa           0.41;
        E               9.8;
        value           nonuniform List<scalar> 9(9.3493e-05 9.54783e-05 9.83337e-05 0.000101718 0.000105473 0.000109547 0.000113385 0.00011499 0.000114071);
    }
    inlet
    {
        type            calculated;
        value           uniform 3.3541e-05;
    }
    outlet
    {
        type            calculated;
        value           nonuniform List<scalar> 2(0.00226946 0.00274112);
    }
}


// ************************************************************************* //
