/*--------------------------------*- C++ -*----------------------------------*\
  =========                 |
  \\      /  F ield         | OpenFOAM: The Open Source CFD Toolbox
   \\    /   O peration     | Website:  https://openfoam.org
    \\  /    A nd           | Version:  6
     \\/     M anipulation  |
\*---------------------------------------------------------------------------*/
FoamFile
{
    version     2.0;
    format      ascii;
    class       surfaceScalarField;
    location    "160";
    object      phi;
}
// * * * * * * * * * * * * * * * * * * * * * * * * * * * * * * * * * * * * * //

dimensions      [1 0 -1 0 0 0 0];

internalField   nonuniform List<scalar> 
852
(
-0.00369477
0.00374718
-0.0036422
-5.21944e-05
-0.00280766
-0.000834241
-0.00248644
-0.000321016
-0.00283542
0.000349126
-0.00325664
0.000421333
-0.00329988
4.33413e-05
-0.00308005
-0.000219723
-0.00263969
-0.000440257
-0.00213688
-0.000502711
-0.00167227
-0.00046451
-0.00125819
-0.000413979
-0.000873276
-0.000384813
-0.000462989
-0.000410188
-0.000459394
-0.000453769
0.000458396
-0.000268741
-0.00018495
7.01175e-05
-0.00033878
0.000280124
-0.000209933
0.000279567
6.20267e-07
1.5392e-05
0.000264227
-0.000435634
0.000450876
-0.000660258
0.000224555
-0.000722055
6.17865e-05
-0.000696043
-2.5992e-05
-0.000593106
-0.000102902
-0.000428055
-0.000165003
-0.000143556
-0.000284437
0.000309365
-0.000452839
0.000552208
-0.000242758
0.000720934
-0.000168636
0.000904836
-0.000183822
0.000861537
4.33667e-05
0.000867457
-0.000260057
0.00415679
0.00140042
-0.00171237
0.00231485
-0.00174839
0.0020284
-3.4266e-05
0.00107027
0.00130754
-0.000302686
0.00179454
-0.00163932
0.00138011
-0.00238916
0.000530215
-0.00232471
-0.000504606
-0.00207107
-0.000756263
-0.00178974
-0.000745741
-0.00148853
-0.000715092
-0.00114312
-0.000730132
-0.000760483
-0.000792729
-0.000368547
-0.000851237
0.000307104
-0.000675612
0.000307159
0.000825621
-0.000356369
0.000620032
2.07161e-05
0.00022533
5.59984e-05
9.12033e-05
-7.57417e-05
0.000185192
-9.33154e-05
0.000230838
0.00021863
0.000184646
0.000497052
0.000169973
0.00023922
0.000145654
8.61158e-05
9.09282e-05
2.87551e-05
3.30611e-05
-4.49973e-05
1.42262e-05
-0.000146112
3.71749e-05
-0.00030731
9.76461e-05
-0.000513197
7.48527e-05
-0.000219836
0.00019934
-0.000293014
0.000468698
-0.000453118
0.000472514
3.96068e-05
0.00135384
0.00610163
-0.00173698
0.00816648
-0.00377702
0.00809538
-0.00167711
0.00705626
0.00100505
0.00551651
0.00284751
0.00369957
0.00361168
0.00166526
0.0034146
-0.000308456
0.00250406
-0.00154299
0.000730007
-0.00180453
-0.000494638
-0.00183242
-0.000717762
-0.00178078
-0.00076664
-0.00167332
-0.000837492
-0.00152884
-0.000937127
-0.00137015
-0.00100984
-0.00108339
-0.000962275
-0.000776151
-0.000812787
0.000470281
-0.00101958
0.00022758
-0.00101347
4.9961e-05
-0.000941543
-0.000147597
-0.000724884
-0.000309904
-3.20113e-05
-0.000474172
0.000465232
0.000704657
0.000790985
0.000819956
0.000775174
0.000629281
0.000322198
-0.000190703
-0.00041029
-0.000469027
-0.00023428
-0.0011068
0.000184674
-0.00137118
0.000304028
4.2749e-06
0.0076298
-0.00913543
0.00944078
-0.00558792
0.00890935
-0.00114559
0.00780239
0.0021121
0.00636712
0.00428291
0.00465445
0.0053245
0.0028113
0.0052579
0.00105215
0.00426333
-0.000564595
0.00234681
-0.00140338
0.000344214
-0.00179153
-0.000329532
-0.00200845
-0.000549623
-0.00216891
-0.000676931
-0.00232577
-0.000780174
-0.00249958
-0.000835937
-0.00267244
-0.000789325
-0.00294789
-0.000500615
-0.00267935
-0.000254017
-0.00224522
3.62403e-05
-0.00211909
0.000101527
-0.00204267
-2.63662e-05
-0.00200853
-0.000181647
-0.0020023
-0.000316043
-0.00211042
-0.00036596
-0.00181704
-0.000293443
-0.00152362
-0.000293475
-0.00119238
-0.000331303
-0.000807343
-0.000385096
-0.000359621
-0.000447783
0.000143172
-0.000502855
0.000648725
-0.000505612
0.00108942
-0.000440755
0.00140286
-0.000313493
0.00126191
-9.32512e-05
0.00113079
0.00031585
0.000817787
0.000617118
0.000840903
0.00419059
-0.0130382
0.00525303
-0.00665027
0.00517159
-0.00106407
0.00481175
0.00247204
0.00415708
0.00493769
0.00319666
0.00628506
0.00205476
0.00639993
0.000889932
0.00542824
-0.00020052
0.00343726
-0.00106834
0.00121208
-0.00158778
0.000189995
-0.00190369
-0.000233624
-0.0021349
-0.000445611
-0.00233474
-0.000580236
-0.00251828
-0.000652296
-0.00267757
-0.000629944
-0.00270061
-0.000477478
-0.00266025
-0.000294273
-0.00247276
-0.000151156
-0.00226439
-0.000106753
-0.0021207
-0.000169959
-0.00203094
-0.000271307
-0.00197828
-0.000368598
-0.0019202
-0.00042395
-0.00176522
-0.00044832
-0.00156448
-0.000494126
-0.00133075
-0.000564932
-0.00106332
-0.000652437
-0.000766679
-0.00074433
-0.000450085
-0.000819349
-0.000111188
-0.000844406
0.000237758
-0.000789589
0.000575952
-0.000651574
0.000915204
-0.000432385
0.00133832
-0.000107135
0.00174054
0.000215033
0.00225324
0.000328365
0.00151566
0.000737545
-0.000285641
0.00180123
-0.000236002
0.0012308
-0.0139233
0.00174047
-0.00715985
0.00224426
-0.00156777
0.00190155
0.00281485
0.00161278
0.00522657
0.00124229
0.00665567
0.000772181
0.00687015
0.000250851
0.00594962
-0.000277621
0.0039657
-0.000851928
0.00178642
-0.0012807
0.000618843
-0.00156966
5.54404e-05
-0.00177542
-0.000239746
-0.00194539
-0.000410148
-0.00209408
-0.000503506
-0.00220799
-0.000515916
-0.00223639
-0.000448974
-0.00218645
-0.000344105
-0.00207487
-0.000262629
-0.00194484
-0.000236682
-0.00184406
-0.000270633
-0.00177911
-0.000336152
-0.00174018
-0.000407426
-0.00169769
-0.000466336
-0.00162715
-0.000518765
-0.00153605
-0.000585129
-0.00143251
-0.000668373
-0.00132197
-0.000762882
-0.0012098
-0.000856398
-0.00109959
-0.000929451
-0.000986729
-0.000957148
-0.000856681
-0.000919507
-0.000689643
-0.00081847
-0.00043477
-0.000687098
5.87351e-05
-0.000600441
0.00089856
-0.00062454
0.00187233
-0.00064512
0.00245175
0.000158352
0.00257005
0.00168311
0.00238819
-0.000520254
-0.0130006
-0.000176931
-0.00750309
-0.000112224
-0.00163237
-0.000828454
0.00353119
-0.000727754
0.00512598
-0.000489803
0.00641782
-0.000342786
0.00672321
-0.000303303
0.00591016
-0.000392959
0.0040553
-0.000643599
0.00203707
-0.000883838
0.000859157
-0.0010784
0.000250102
-0.00122872
-8.93096e-05
-0.00135098
-0.000287777
-0.00145505
-0.000399318
-0.00153141
-0.000439435
-0.00155973
-0.000420532
-0.00153387
-0.000369845
-0.00147283
-0.000323551
-0.00140358
-0.00030582
-0.00135212
-0.000321978
-0.00132727
-0.000360888
-0.00132572
-0.000408864
-0.00133566
-0.000456279
-0.00135041
-0.000503912
-0.00137726
-0.000558186
-0.00142724
-0.000618294
-0.00151227
-0.000677758
-0.00164137
-0.000727191
-0.00181396
-0.00075674
-0.00201371
-0.000757254
-0.00221137
-0.000721684
-0.00237506
-0.000654604
-0.00247533
-0.000586629
-0.00250534
-0.000570204
-0.00242442
-0.000705201
-0.00192182
-0.00114746
-3.13593e-05
-0.00173186
0.00172267
-7.0771e-05
0.00416989
-0.00288302
-0.0096625
-0.0041983
-0.00618772
-0.0037316
-0.00209898
-0.0034409
0.0032406
-0.0026068
0.00429197
-0.00174652
0.00555763
-0.00105575
0.00603248
-0.000568351
0.00542274
-0.000290872
0.00377775
-0.000249738
0.00199594
-0.000316798
0.000926283
-0.000405565
0.000338966
-0.000489246
-5.51691e-06
-0.000562834
-0.000214072
-0.000630844
-0.000331186
-0.000686097
-0.000384056
-0.000716935
-0.000389567
-0.000718583
-0.000368066
-0.000700241
-0.000341763
-0.000678621
-0.00032731
-0.000669701
-0.000330769
-0.000681662
-0.000348801
-0.00071582
-0.000374582
-0.000770298
-0.000401682
-0.000847478
-0.000426619
-0.00095987
-0.000445688
-0.00112706
-0.000451007
-0.0013757
-0.00042902
-0.00173591
-0.000366873
-0.00223005
-0.000262465
-0.00285519
-0.000131967
-0.00357468
-2.03002e-06
-0.00434388
0.000114778
-0.00512815
0.000197837
-0.00588274
0.000184573
-0.00659286
5.10477e-06
-0.00739277
-0.000347366
-0.00829144
-0.000833008
-0.00682104
-0.001541
-0.00234617
-0.00916749
-0.015357
-0.0100566
-0.00739932
-0.00596438
-0.000851517
-0.00389819
0.00222586
-0.00244492
0.00410442
-0.00130499
0.00489256
-0.000448483
0.0045662
0.00017665
0.00315256
0.000451578
0.00172101
0.000530376
0.000847531
0.000531551
0.000337869
0.000497924
2.82071e-05
0.000449016
-0.000165056
0.000393622
-0.000275676
0.00033803
-0.000328343
0.000290873
-0.000342282
0.000256995
-0.000334054
0.000233642
-0.000318271
0.000212151
-0.000305676
0.000182922
-0.000301398
0.000139597
-0.000305332
7.95556e-05
-0.0003144
2.36479e-06
-0.000324353
-9.24574e-05
-0.000331664
-0.000207465
-0.000330556
-0.000345573
-0.000312783
-0.000506775
-0.000267709
-0.000686599
-0.000186943
-0.000877047
-7.19086e-05
-0.00107988
7.09796e-05
-0.00132518
0.000243388
-0.00163764
0.000427345
-0.00201773
0.000578029
-0.00246907
0.000636004
-0.00302923
0.000565353
-0.00374903
0.000372511
-0.00445673
-0.000125227
-0.00387947
-0.00211816
-0.00590417
-0.00818237
0.00119427
-0.00603005
-0.00300379
-0.00405629
0.000252158
-0.00243907
0.00248724
-0.00105641
0.0035099
0.000132196
0.00337756
0.0010281
0.00225662
0.00147589
0.00127321
0.00167758
0.000645876
0.0017488
0.000266697
0.00174622
3.08617e-05
0.00169998
-0.000118727
0.00162999
-0.000205592
0.00154978
-0.000248023
0.00146916
-0.000261545
0.00139387
-0.00025864
0.00132463
-0.000248896
0.00125799
-0.000238885
0.00118878
-0.000232043
0.00111264
-0.000229034
0.00102709
-0.00022869
0.000931804
-0.000228914
0.000827538
-0.000227244
0.000717165
-0.000220034
0.000606939
-0.000202416
0.000507854
-0.000168491
0.000433599
-0.000112562
0.000392928
-3.11164e-05
0.000384318
7.97102e-05
0.000407515
0.00022031
0.000459763
0.00037521
0.000533985
0.000503913
0.000623903
0.000546184
0.000752638
0.000436705
0.00103531
8.9912e-05
0.00147483
-0.000564647
0.00139993
-0.00204316
-0.00443362
-0.00178098
0.00297304
-0.00328657
-0.00149817
-0.0030516
1.72328e-05
-0.00189419
0.00132986
-0.000378213
0.00199393
0.00112763
0.00187168
0.00218374
0.0012005
0.0027735
0.000683457
0.00306564
0.000353766
0.00318272
0.000149649
0.00319413
1.95031e-05
0.00313629
-6.08198e-05
0.00303902
-0.000108244
0.00292308
-0.000132004
0.00280196
-0.000140327
0.00268331
-0.000139885
0.00256991
-0.000135371
0.00246097
-0.000129817
0.00235394
-0.000124863
0.00224603
-0.000120974
0.00213527
-0.000117761
0.00202122
-0.000114688
0.00190521
-0.000111063
0.00179115
-0.000105797
0.00168651
-9.76107e-05
0.00160275
-8.45579e-05
0.00155324
-6.28914e-05
0.00154885
-2.65734e-05
0.00160453
2.41684e-05
0.00173479
9.01949e-05
0.00193697
0.000173168
0.00219158
0.000249431
0.00245993
0.00027796
0.00268556
0.000211196
0.00277837
-2.79029e-06
0.00261691
-0.000403076
0.00169769
-0.00112381
-0.00265115
-0.00285152
-0.00425831
-0.00128857
-0.00279481
-0.00278581
-0.00146353
0.000523534
0.00239009
0.00358642
0.00426626
0.00461675
0.00476334
0.00477994
0.00471637
0.00460556
0.00447119
0.00432873
0.00418697
0.00405003
0.00391898
0.00379327
0.00367188
0.00355421
0.00344017
0.00333038
0.00322656
0.00313168
0.00305066
0.00299213
0.0029707
0.00300071
0.0030973
0.00327729
0.00353382
0.0038191
0.0040378
0.00404281
0.00364786
0.00253243
)
;

boundaryField
{
    floor
    {
        type            calculated;
        value           nonuniform List<scalar> 
29
(
0
0
0
0
0
0
0
0
0
0
0
0
0
0
0
0
0
0
0
0
-5.86868e-06
-1.3818e-05
-2.15758e-05
-1.86509e-05
-3.4955e-06
-4.54775e-06
-1.07807e-05
-1.37841e-05
-1.44408e-05
)
;
    }
    ceiling
    {
        type            calculated;
        value           nonuniform List<scalar> 
43
(
5.58634e-06
3.99905e-06
3.30315e-06
8.09193e-06
8.2619e-06
7.60708e-06
6.87033e-06
5.13421e-06
4.18989e-06
3.64467e-06
3.31219e-06
3.09847e-06
2.95328e-06
2.79979e-06
2.62495e-06
2.42742e-06
2.20426e-06
1.95171e-06
1.66533e-06
1.33999e-06
9.69829e-07
5.48286e-07
6.85577e-08
-4.7567e-07
-1.08926e-06
-1.77404e-06
-2.52591e-06
-3.3296e-06
-4.15214e-06
-4.94194e-06
-5.64504e-06
-6.21452e-06
-6.63391e-06
-6.9242e-06
-7.13424e-06
-7.33689e-06
-7.63688e-06
-7.96672e-06
-8.22898e-06
-8.24847e-06
3.37732e-06
1.86413e-06
2.23437e-06
)
;
    }
    sWall
    {
        type            calculated;
        value           uniform -0.00016653;
    }
    nWall
    {
        type            calculated;
        value           nonuniform List<scalar> 6(-4.97263e-05 -5.39822e-05 -5.88889e-05 -7.04907e-05 -8.46452e-05 -0.000110317);
    }
    sideWalls
    {
        type            empty;
        value           nonuniform 0();
    }
    glass1
    {
        type            calculated;
        value           nonuniform List<scalar> 9(-5.20236e-05 -0.00014919 -0.000207586 -0.000231271 -0.000287782 -0.000345619 -0.000402399 -0.000454963 -0.000498316);
    }
    glass2
    {
        type            calculated;
        value           nonuniform List<scalar> 2(-0.000304805 -0.000321352);
    }
    sun
    {
        type            calculated;
        value           uniform 0;
    }
    heatsource1
    {
        type            calculated;
        value           nonuniform List<scalar> 3(2.04925e-07 2.05187e-07 2.05779e-07);
    }
    heatsource2
    {
        type            calculated;
        value           nonuniform List<scalar> 4(5.1426e-08 5.15067e-08 0 0);
    }
    Table_master
    {
        type            calculated;
        value           nonuniform List<scalar> 9(-1.54601e-07 -1.54614e-07 -1.54626e-07 -1.54648e-07 -1.54678e-07 -1.54726e-07 -1.54814e-07 -1.54855e-07 -1.54684e-07);
    }
    Table_slave
    {
        type            calculated;
        value           nonuniform List<scalar> 9(1.53623e-07 1.53721e-07 1.53811e-07 1.53913e-07 1.54034e-07 1.54129e-07 1.5408e-07 1.5394e-07 1.53842e-07);
    }
    inlet
    {
        type            calculated;
        value           uniform -0.000411173;
    }
    outlet
    {
        type            calculated;
        value           nonuniform List<scalar> 2(0.00301247 0.00140281);
    }
}


// ************************************************************************* //
