/*--------------------------------*- C++ -*----------------------------------*\
  =========                 |
  \\      /  F ield         | OpenFOAM: The Open Source CFD Toolbox
   \\    /   O peration     | Website:  https://openfoam.org
    \\  /    A nd           | Version:  6
     \\/     M anipulation  |
\*---------------------------------------------------------------------------*/
FoamFile
{
    version     2.0;
    format      ascii;
    class       volScalarField;
    location    "160";
    object      T;
}
// * * * * * * * * * * * * * * * * * * * * * * * * * * * * * * * * * * * * * //

dimensions      [0 0 0 1 0 0 0];

internalField   nonuniform List<scalar> 
459
(
303.615
303.435
303.382
303.044
302.741
302.585
302.495
302.459
302.435
302.416
302.404
302.397
302.393
302.392
302.397
302.234
302.226
302.229
302.23
302.219
302.197
302.094
301.958
301.901
301.877
301.862
301.85
301.842
301.839
301.861
301.894
301.914
301.912
301.927
304.012
304.338
304.315
304.123
303.8
303.378
302.906
302.661
302.54
302.476
302.449
302.436
302.428
302.419
302.407
302.384
302.313
302.275
302.262
302.255
302.264
302.264
302.22
302.142
302.049
301.994
301.95
301.908
301.882
301.866
301.865
301.933
302.033
302.011
301.973
301.949
304.511
304.536
304.526
304.491
304.334
304.044
303.672
303.273
302.739
302.554
302.497
302.48
302.47
302.458
302.442
302.42
302.392
302.34
302.338
302.348
302.364
302.368
302.348
302.148
302.091
302.055
302.025
301.997
301.968
301.932
301.922
302.09
302.177
302.052
302.002
301.973
304.817
304.606
304.56
304.538
304.466
304.289
303.996
303.609
303.093
302.659
302.549
302.526
302.518
302.507
302.492
302.471
302.449
302.435
302.421
302.437
302.457
302.473
302.483
302.489
302.496
302.498
302.5
302.502
302.504
302.505
302.503
302.497
302.485
302.445
302.356
302.262
302.222
304.672
304.335
304.306
304.37
304.405
304.323
304.096
303.734
303.225
302.745
302.604
302.577
302.574
302.571
302.563
302.55
302.536
302.525
302.519
302.522
302.531
302.537
302.541
302.542
302.542
302.542
302.542
302.542
302.541
302.54
302.538
302.531
302.518
302.493
302.441
302.376
302.325
302.316
302.323
302.432
304.543
304.103
304.122
304.251
304.348
304.31
304.107
303.75
303.238
302.797
302.659
302.631
302.633
302.637
302.635
302.627
302.615
302.605
302.597
302.595
302.594
302.594
302.593
302.59
302.587
302.583
302.579
302.576
302.573
302.571
302.57
302.566
302.558
302.544
302.524
302.493
302.47
302.423
302.375
302.385
304.41
303.987
304.079
304.244
304.32
304.272
304.065
303.705
303.223
302.843
302.714
302.693
302.699
302.71
302.714
302.711
302.702
302.691
302.681
302.673
302.667
302.661
302.655
302.647
302.638
302.629
302.619
302.611
302.606
302.605
302.607
302.61
302.612
302.613
302.615
302.621
302.628
302.621
302.443
302.425
304.265
303.945
304.061
304.235
304.265
304.196
303.992
303.652
303.225
302.903
302.785
302.765
302.775
302.792
302.803
302.806
302.8
302.79
302.778
302.766
302.754
302.743
302.731
302.718
302.703
302.687
302.67
302.654
302.643
302.64
302.648
302.663
302.681
302.698
302.715
302.729
302.742
302.749
302.75
302.745
304.117
303.839
303.825
304.143
304.172
304.096
303.912
303.616
303.253
302.997
302.9
302.875
302.878
302.892
302.905
302.91
302.908
302.9
302.888
302.874
302.858
302.843
302.826
302.808
302.787
302.765
302.741
302.716
302.693
302.679
302.676
302.684
302.701
302.724
302.751
302.78
302.805
302.826
302.848
302.924
303.407
303.939
304.038
303.991
303.848
303.609
303.311
303.143
303.067
303.036
303.028
303.028
303.031
303.032
303.029
303.021
303.01
302.995
302.978
302.959
302.938
302.916
302.892
302.866
302.837
302.806
302.775
302.746
302.724
302.711
302.709
302.716
302.729
302.743
302.753
302.751
302.751
302.776
303.652
303.878
303.916
303.904
303.81
303.615
303.425
303.318
303.261
303.23
303.213
303.201
303.191
303.182
303.172
303.161
303.147
303.13
303.112
303.091
303.069
303.044
303.017
302.988
302.957
302.923
302.887
302.85
302.814
302.783
302.76
302.745
302.739
302.738
302.737
302.737
302.74
302.773
303.79
303.714
303.71
303.841
303.853
303.849
303.798
303.65
303.558
303.501
303.464
303.439
303.421
303.403
303.387
303.37
303.353
303.335
303.317
303.298
303.277
303.255
303.231
303.205
303.178
303.149
303.117
303.084
303.049
303.012
302.973
302.932
302.891
302.854
302.824
302.801
302.785
302.771
302.76
302.782
)
;

boundaryField
{
    floor
    {
        type            wallHeatTransfer;
        Tinf            uniform 305.2;
        alphaWall       uniform 0.24;
        value           nonuniform List<scalar> 
29
(
302.862
302.838
302.773
302.762
302.792
302.835
302.874
302.937
303.023
303.013
302.972
302.939
302.948
302.966
302.919
302.83
302.728
302.643
302.645
302.707
302.707
302.561
302.546
302.576
302.862
302.838
302.753
302.707
302.76
)
;
    }
    ceiling
    {
        type            wallHeatTransfer;
        Tinf            uniform 303.2;
        alphaWall       uniform 0.24;
        value           nonuniform List<scalar> 
43
(
303.755
303.688
303.688
303.792
303.803
303.803
303.756
303.618
303.531
303.477
303.442
303.418
303.401
303.384
303.369
303.353
303.337
303.321
303.304
303.287
303.268
303.248
303.227
303.205
303.181
303.155
303.128
303.099
303.069
303.036
303.001
302.963
302.925
302.889
302.86
302.839
302.824
302.813
302.802
302.824
304.088
303.821
303.638
)
;
    }
    sWall
    {
        type            wallHeatTransfer;
        Tinf            uniform 315.2;
        alphaWall       uniform 0.36;
        value           uniform 304.771;
    }
    nWall
    {
        type            wallHeatTransfer;
        Tinf            uniform 307.2;
        alphaWall       uniform 0.36;
        value           nonuniform List<scalar> 6(303.168 303.042 303.033 303.278 303.316 303.425);
    }
    sideWalls
    {
        type            empty;
    }
    glass1
    {
        type            wallHeatTransfer;
        Tinf            uniform 315.2;
        alphaWall       uniform 4.3;
        value           nonuniform List<scalar> 9(310.961 311.048 310.387 309.502 309.239 309.035 308.826 308.579 308.246);
    }
    glass2
    {
        type            wallHeatTransfer;
        Tinf            uniform 307.2;
        alphaWall       uniform 4.3;
        value           nonuniform List<scalar> 2(305.535 305.517);
    }
    sun
    {
        type            wallHeatTransfer;
        Tinf            uniform 305.2;
        alphaWall       uniform 0.24;
        value           nonuniform List<scalar> 
14
(
303.752
303.574
303.516
303.209
302.957
302.845
302.805
302.804
302.81
302.819
302.828
302.835
302.842
302.849
)
;
    }
    heatsource1
    {
        type            fixedGradient;
        gradient        uniform 0;
    }
    heatsource2
    {
        type            fixedGradient;
        gradient        uniform 0;
    }
    Table_master
    {
        type            zeroGradient;
    }
    Table_slave
    {
        type            zeroGradient;
    }
    inlet
    {
        type            fixedValue;
        value           uniform 290.15;
    }
    outlet
    {
        type            zeroGradient;
    }
}


// ************************************************************************* //
