/*--------------------------------*- C++ -*----------------------------------*\
  =========                 |
  \\      /  F ield         | OpenFOAM: The Open Source CFD Toolbox
   \\    /   O peration     | Website:  https://openfoam.org
    \\  /    A nd           | Version:  6
     \\/     M anipulation  |
\*---------------------------------------------------------------------------*/
FoamFile
{
    version     2.0;
    format      ascii;
    class       volVectorField;
    location    "160";
    object      U;
}
// * * * * * * * * * * * * * * * * * * * * * * * * * * * * * * * * * * * * * //

dimensions      [0 1 -1 0 0 0 0];

internalField   nonuniform List<vector> 
459
(
(-0.0432195 0.0720083 0)
(-0.169671 -0.0119788 0)
(-0.120697 -0.0226108 0)
(-0.112306 0.00367261 0)
(-0.117632 0.0109889 0)
(-0.134557 0.00198346 0)
(-0.144639 -0.00773267 0)
(-0.138088 -0.0134256 0)
(-0.122906 -0.0177101 0)
(-0.102585 -0.0179708 0)
(-0.081938 -0.0161324 0)
(-0.0623291 -0.0143514 0)
(-0.0431843 -0.0138442 0)
(-0.0300885 -0.0156552 0)
(-0.0539802 -0.0181449 0)
(0.040205 0.00844912 0)
(-0.0218289 -0.0097291 0)
(-0.0059909 -0.012654 0)
(0.00504212 -0.00920263 0)
(0.0118885 -0.0042181 0)
(0.0117164 0.00460256 0)
(-0.00702778 0.0116134 0)
(-0.0275631 0.0027144 0)
(-0.0315945 -0.00335871 0)
(-0.0315666 -0.00606075 0)
(-0.0276848 -0.00801106 0)
(-0.0216015 -0.0105213 0)
(-0.0110667 -0.0144554 0)
(0.00487612 -0.0205433 0)
(0.0165175 -0.0133706 0)
(0.0278704 -0.00981329 0)
(0.0342148 -0.0108432 0)
(0.045191 -0.0037797 0)
(-0.0156161 0.0205725 0)
(0.233494 0.207977 0)
(0.0304433 -0.0641347 0)
(0.0960456 -0.063608 0)
(0.0869146 -0.00737212 0)
(0.0701451 0.0383864 0)
(0.0225715 0.0485939 0)
(-0.0498552 0.017718 0)
(-0.0946579 -0.0119667 0)
(-0.10367 -0.0271637 0)
(-0.0951296 -0.0309366 0)
(-0.083376 -0.0287911 0)
(-0.0706573 -0.0265684 0)
(-0.0563579 -0.0262867 0)
(-0.040893 -0.0286474 0)
(-0.0270142 -0.0328391 0)
(-0.0102774 -0.0355465 0)
(0.0209529 0.00179248 0)
(0.11063 0.00178893 0)
(0.0363453 -0.000497133 0)
(0.00986954 -0.00339389 0)
(0.00133139 -0.00398144 0)
(0.00269464 -4.90573e-05 0)
(0.0113501 0.0124393 0)
(0.0113702 0.0196179 0)
(0.00474531 0.0111777 0)
(0.00600806 0.00442638 0)
(0.00608055 0.000965718 0)
(0.00221533 -0.00319886 0)
(0.0011325 -0.00746506 0)
(0.00489993 -0.0139607 0)
(0.00314914 -0.0216899 0)
(-0.00163782 -0.0115361 0)
(0.0110753 -0.0126267 0)
(0.0117285 -0.0192957 0)
(0.0345552 -0.00781506 0)
(-0.0739744 0.0438074 0)
(0.520894 0.176482 0)
(0.326613 -0.0247518 0)
(0.328385 -0.0227037 0)
(0.334908 0.0463404 0)
(0.281052 0.101122 0)
(0.201662 0.123042 0)
(0.115666 0.111366 0)
(0.0299831 0.0709661 0)
(-0.0567091 -0.00663154 0)
(-0.0759017 -0.0313958 0)
(-0.0791743 -0.0341395 0)
(-0.0780795 -0.0343048 0)
(-0.074277 -0.0363571 0)
(-0.0685412 -0.0403037 0)
(-0.0620777 -0.0436859 0)
(-0.056632 -0.0419779 0)
(-0.055173 -0.0328194 0)
(0.0461931 0.0048398 0)
(-0.0468105 0.00735481 0)
(-0.0446292 0.00462592 0)
(-0.0426118 -0.00335668 0)
(-0.0372222 -0.0088979 0)
(-0.0297594 -0.00927476 0)
(0.0230682 0.0204665 0)
(0.0256551 0.0128817 0)
(0.0315154 0.007534 0)
(0.0349805 0.00400114 0)
(0.0352456 0.000975719 0)
(0.0315565 -0.00251112 0)
(0.0244661 -0.0081238 0)
(0.00141081 -0.0159629 0)
(-0.0241316 -0.00646002 0)
(-0.00149853 -0.00554717 0)
(-0.0236467 0.00418688 0)
(-0.0624331 0.0209217 0)
(-0.162152 0.0394788 0)
(0.696093 -0.339021 0)
(0.327224 -0.26177 0)
(0.360736 -0.122222 0)
(0.374819 0.0216404 0)
(0.321162 0.131418 0)
(0.242518 0.18525 0)
(0.160578 0.187377 0)
(0.0808145 0.149946 0)
(0.00263766 0.0736024 0)
(-0.0515608 -0.00514203 0)
(-0.0712084 -0.0244299 0)
(-0.0822622 -0.0296278 0)
(-0.0896991 -0.0335164 0)
(-0.096049 -0.0370508 0)
(-0.103267 -0.0376248 0)
(-0.113326 -0.0301401 0)
(-0.125047 -0.007218 0)
(-0.122436 0.0363795 0)
(-0.0965449 0.0131073 0)
(-0.0968783 0.00782096 0)
(-0.089368 -0.000200308 0)
(-0.086746 -0.00831332 0)
(-0.0871283 -0.0148081 0)
(-0.0893192 -0.0178908 0)
(-0.0851192 -0.0125314 0)
(-0.0721133 -0.0121231 0)
(-0.0584202 -0.013704 0)
(-0.0429044 -0.0159634 0)
(-0.0254369 -0.018708 0)
(-0.00567332 -0.0214808 0)
(0.0176175 -0.022043 0)
(0.0370011 -0.0196131 0)
(0.0541195 -0.0153497 0)
(0.0608521 -0.00712629 0)
(0.0560681 0.00958661 0)
(0.0519477 0.0183012 0)
(-0.0741569 0.0151587 0)
(0.675117 -0.519901 0)
(0.0771764 -0.28482 0)
(0.184559 -0.0502215 0)
(0.235291 0.107492 0)
(0.212036 0.2047 0)
(0.165091 0.25363 0)
(0.114031 0.254225 0)
(0.0617101 0.212253 0)
(0.00813281 0.129269 0)
(-0.034758 0.0355737 0)
(-0.0596722 -0.00329417 0)
(-0.0760763 -0.0172473 0)
(-0.0870616 -0.0245007 0)
(-0.096202 -0.0298687 0)
(-0.104765 -0.033468 0)
(-0.112431 -0.033857 0)
(-0.116658 -0.0283217 0)
(-0.116167 -0.0146782 0)
(-0.110027 -0.00342871 0)
(-0.101608 -0.000314393 0)
(-0.0937538 -0.00420398 0)
(-0.0889287 -0.00950035 0)
(-0.0863721 -0.0142838 0)
(-0.084231 -0.0168452 0)
(-0.0795613 -0.0162583 0)
(-0.0717827 -0.0177024 0)
(-0.0623367 -0.0203485 0)
(-0.0514681 -0.0238314 0)
(-0.0393346 -0.0276884 0)
(-0.0263035 -0.030978 0)
(-0.0126443 -0.0319376 0)
(0.00231581 -0.0289834 0)
(0.0166008 -0.0218757 0)
(0.0309673 -0.0103702 0)
(0.0507998 0.00771913 0)
(0.0746831 0.0228799 0)
(0.068682 0.0316294 0)
(0.0981497 0.0365257 0)
(0.123977 0.0604987 0)
(-0.388057 -0.0264047 0)
(0.631193 -0.608037 0)
(-0.137675 -0.307569 0)
(0.0793451 -0.0417462 0)
(0.11159 0.120725 0)
(0.0889725 0.227826 0)
(0.0666934 0.286448 0)
(0.0451235 0.291933 0)
(0.0213905 0.249664 0)
(-0.00575825 0.161575 0)
(-0.0289828 0.0656735 0)
(-0.0473439 0.0183033 0)
(-0.0623118 -0.00347383 0)
(-0.0722792 -0.0143068 0)
(-0.0801731 -0.0206713 0)
(-0.0871976 -0.0240174 0)
(-0.0930549 -0.0238908 0)
(-0.0961762 -0.0201222 0)
(-0.0956138 -0.0146113 0)
(-0.0918047 -0.0097443 0)
(-0.0862703 -0.00808202 0)
(-0.0811022 -0.00995636 0)
(-0.0776053 -0.013458 0)
(-0.0755887 -0.0171309 0)
(-0.0740135 -0.0198783 0)
(-0.071591 -0.0217231 0)
(-0.0680077 -0.0243794 0)
(-0.0637046 -0.0279707 0)
(-0.0589874 -0.0322073 0)
(-0.054148 -0.0365446 0)
(-0.0494859 -0.0400443 0)
(-0.0450304 -0.0414254 0)
(-0.0402443 -0.0396362 0)
(-0.0343545 -0.0345242 0)
(-0.0253933 -0.0267772 0)
(-0.00958597 -0.0174267 0)
(0.0235771 -0.00930796 0)
(0.0521039 -0.00754286 0)
(0.0939468 0.0185429 0)
(0.134015 0.0689008 0)
(-0.0378386 0.0779483 0)
(0.524058 -0.588239 0)
(-0.218784 -0.325009 0)
(0.0242947 -0.0779186 0)
(0.000328241 0.150324 0)
(-0.0289933 0.233264 0)
(-0.022176 0.291319 0)
(-0.0158985 0.300472 0)
(-0.0139669 0.260296 0)
(-0.0179781 0.174999 0)
(-0.0243702 0.0837091 0)
(-0.0334234 0.032588 0)
(-0.0424669 0.00716768 0)
(-0.0500301 -0.0067278 0)
(-0.0555446 -0.0147301 0)
(-0.0604884 -0.0191947 0)
(-0.0645369 -0.020436 0)
(-0.0668696 -0.0187844 0)
(-0.0668663 -0.0157875 0)
(-0.0648099 -0.0131202 0)
(-0.0617651 -0.01214 0)
(-0.0590057 -0.013136 0)
(-0.0573483 -0.0153484 0)
(-0.0568557 -0.0179767 0)
(-0.0570981 -0.020441 0)
(-0.0575898 -0.0228167 0)
(-0.0583453 -0.0256647 0)
(-0.0598121 -0.0290659 0)
(-0.062515 -0.0327735 0)
(-0.0669884 -0.0363056 0)
(-0.0735768 -0.0389994 0)
(-0.0820328 -0.0401699 0)
(-0.0912546 -0.0394433 0)
(-0.0995777 -0.0371812 0)
(-0.105397 -0.0347492 0)
(-0.106918 -0.0349019 0)
(-0.102729 -0.0413768 0)
(-0.0960813 -0.0552101 0)
(-0.0918744 -0.0616129 0)
(0.102988 0.0341366 0)
(-0.0912421 0.172415 0)
(0.328481 -0.468598 0)
(-0.285804 -0.270316 0)
(-0.190651 -0.0861824 0)
(-0.104057 0.162423 0)
(-0.132278 0.212993 0)
(-0.0911934 0.266633 0)
(-0.0584743 0.281813 0)
(-0.034551 0.249104 0)
(-0.0198087 0.172356 0)
(-0.0117407 0.0891746 0)
(-0.0115218 0.0391232 0)
(-0.0150662 0.0128202 0)
(-0.0194091 -0.00201828 0)
(-0.0224702 -0.0107872 0)
(-0.0255974 -0.0157558 0)
(-0.0284111 -0.0178654 0)
(-0.0303818 -0.0176906 0)
(-0.0310919 -0.0162488 0)
(-0.0306358 -0.0147273 0)
(-0.0296211 -0.0139919 0)
(-0.0288332 -0.0143395 0)
(-0.0288424 -0.0155125 0)
(-0.0298316 -0.0170952 0)
(-0.0317211 -0.0187301 0)
(-0.0344638 -0.0203218 0)
(-0.0383416 -0.0218904 0)
(-0.0440554 -0.0232335 0)
(-0.0525866 -0.0239319 0)
(-0.0652273 -0.0235619 0)
(-0.0833923 -0.0219499 0)
(-0.107802 -0.0192368 0)
(-0.137535 -0.0155867 0)
(-0.169885 -0.0111068 0)
(-0.204002 -0.00729063 0)
(-0.23839 -0.00617309 0)
(-0.270425 -0.00926455 0)
(-0.294886 -0.0151629 0)
(-0.316273 -0.0141836 0)
(-0.36777 0.0127099 0)
(-0.569366 0.0737378 0)
(0.0438845 -0.316779 0)
(-0.588657 -0.234657 0)
(-0.742456 -0.179241 0)
(-0.183685 0.0761343 0)
(-0.216626 0.155085 0)
(-0.134303 0.216228 0)
(-0.0789748 0.241603 0)
(-0.0372562 0.22009 0)
(-0.0060744 0.15402 0)
(0.0151093 0.0822441 0)
(0.0229943 0.0396571 0)
(0.0241086 0.0154791 0)
(0.022731 0.00102888 0)
(0.0207142 -0.00787959 0)
(0.0183834 -0.0129275 0)
(0.0158292 -0.0153173 0)
(0.0134667 -0.0158525 0)
(0.0116514 -0.0152941 0)
(0.0104445 -0.0144166 0)
(0.00956808 -0.0138063 0)
(0.00857397 -0.0137297 0)
(0.00707771 -0.0141469 0)
(0.00488524 -0.0148644 0)
(0.00197187 -0.0156472 0)
(-0.00172912 -0.0163227 0)
(-0.00615951 -0.0166183 0)
(-0.0115236 -0.0161152 0)
(-0.0178873 -0.0141967 0)
(-0.0251977 -0.010345 0)
(-0.0333515 -0.00458524 0)
(-0.041767 0.00239313 0)
(-0.0504732 0.009573 0)
(-0.0626348 0.0156646 0)
(-0.0782049 0.019187 0)
(-0.0974008 0.0164204 0)
(-0.119947 0.00194418 0)
(-0.142865 -0.0297462 0)
(-0.150449 -0.0823487 0)
(-0.179766 -0.154356 0)
(-0.539854 -0.247144 0)
(-1.67426 -0.213408 0)
(-0.0735361 -0.109194 0)
(-0.222317 0.0546883 0)
(-0.137686 0.145829 0)
(-0.0745751 0.184596 0)
(-0.0203146 0.175475 0)
(0.0271051 0.118676 0)
(0.0561729 0.0670832 0)
(0.0704617 0.0345891 0)
(0.0756457 0.0151782 0)
(0.0764043 0.00320188 0)
(0.0747841 -0.00459919 0)
(0.0720123 -0.00930498 0)
(0.0685927 -0.0117187 0)
(0.0649815 -0.012583 0)
(0.0615355 -0.0125353 0)
(0.0584064 -0.0120984 0)
(0.055519 -0.0116476 0)
(0.0526552 -0.0113829 0)
(0.0495799 -0.0113411 0)
(0.0461321 -0.01145 0)
(0.0422546 -0.0115795 0)
(0.0379544 -0.0115968 0)
(0.0333168 -0.0113081 0)
(0.0285197 -0.0104442 0)
(0.0239366 -0.00867324 0)
(0.0201127 -0.00570613 0)
(0.0175912 -0.00149916 0)
(0.0168783 0.0040059 0)
(0.0173137 0.0109921 0)
(0.0188776 0.0189253 0)
(0.0211799 0.0261201 0)
(0.0239224 0.0305846 0)
(0.0268807 0.0314271 0)
(0.0314776 0.0294558 0)
(0.0586621 0.0172398 0)
(0.121399 -0.0629287 0)
(-0.161632 -0.213474 0)
(-0.465971 0.0534305 0)
(0.0333214 -0.122619 0)
(-0.14877 -0.0203067 0)
(-0.111959 0.0731412 0)
(-0.0523542 0.118659 0)
(0.0177591 0.115807 0)
(0.0734079 0.0741196 0)
(0.109312 0.0395173 0)
(0.128779 0.0167153 0)
(0.136982 0.00243528 0)
(0.13898 -0.00660306 0)
(0.137222 -0.0118801 0)
(0.13345 -0.0146092 0)
(0.128609 -0.0156454 0)
(0.123329 -0.0156195 0)
(0.118052 -0.0149932 0)
(0.113004 -0.0140799 0)
(0.108217 -0.0130662 0)
(0.103595 -0.0120316 0)
(0.0990007 -0.0109707 0)
(0.0943166 -0.00982013 0)
(0.0894851 -0.00848132 0)
(0.084521 -0.00685269 0)
(0.0795288 -0.00483296 0)
(0.0747423 -0.00233078 0)
(0.0705734 0.000733897 0)
(0.0675903 0.00446983 0)
(0.0664321 0.00902697 0)
(0.0674433 0.0141389 0)
(0.0713551 0.0194569 0)
(0.0784178 0.0249807 0)
(0.0881414 0.0296001 0)
(0.0992664 0.0313441 0)
(0.109606 0.0278614 0)
(0.116926 0.0157368 0)
(0.11862 -0.0105223 0)
(0.148989 -0.0635834 0)
(-0.173226 -0.152744 0)
(0.246363 -0.129097 0)
(-0.1909 -0.0584158 0)
(-0.203775 0.126508 0)
(-0.0233409 -0.00739601 0)
(-0.128263 0.0401825 0)
(-0.0939108 0.0694897 0)
(-0.0285171 0.0939195 0)
(0.0684134 0.0872924 0)
(0.12904 0.0654139 0)
(0.171072 0.0485205 0)
(0.194731 0.037418 0)
(0.205058 0.0303909 0)
(0.207704 0.0259041 0)
(0.205751 0.0225169 0)
(0.201406 0.0197793 0)
(0.195827 0.017517 0)
(0.18968 0.0155538 0)
(0.183429 0.0137073 0)
(0.177349 0.0118019 0)
(0.171544 0.00967034 0)
(0.166011 0.0071536 0)
(0.160696 0.00410171 0)
(0.155552 0.000381681 0)
(0.150559 -0.00410243 0)
(0.145729 -0.00939123 0)
(0.141109 -0.0154453 0)
(0.136794 -0.0220999 0)
(0.132945 -0.029015 0)
(0.129835 -0.0356488 0)
(0.128011 -0.0412995 0)
(0.1281 -0.0449814 0)
(0.130581 -0.0455694 0)
(0.136301 -0.043149 0)
(0.145566 -0.0391291 0)
(0.157293 -0.0360034 0)
(0.168483 -0.0366011 0)
(0.175233 -0.0436974 0)
(0.169362 -0.0546874 0)
(0.178711 -0.0746512 0)
(-0.179116 -0.119578 0)
)
;

boundaryField
{
    floor
    {
        type            noSlip;
    }
    ceiling
    {
        type            noSlip;
    }
    sWall
    {
        type            noSlip;
    }
    nWall
    {
        type            noSlip;
    }
    sideWalls
    {
        type            empty;
    }
    glass1
    {
        type            noSlip;
    }
    glass2
    {
        type            noSlip;
    }
    sun
    {
        type            noSlip;
    }
    heatsource1
    {
        type            noSlip;
    }
    heatsource2
    {
        type            noSlip;
    }
    Table_master
    {
        type            noSlip;
    }
    Table_slave
    {
        type            noSlip;
    }
    inlet
    {
        type            fixedValue;
        value           uniform (0.1 0 0);
    }
    outlet
    {
        type            zeroGradient;
    }
}


// ************************************************************************* //
