/*--------------------------------*- C++ -*----------------------------------*\
  =========                 |
  \\      /  F ield         | OpenFOAM: The Open Source CFD Toolbox
   \\    /   O peration     | Website:  https://openfoam.org
    \\  /    A nd           | Version:  6
     \\/     M anipulation  |
\*---------------------------------------------------------------------------*/
FoamFile
{
    version     2.0;
    format      ascii;
    class       volScalarField;
    location    "1200";
    object      epsilon;
}
// * * * * * * * * * * * * * * * * * * * * * * * * * * * * * * * * * * * * * //

dimensions      [0 2 -3 0 0 0 0];

internalField   nonuniform List<scalar> 
459
(
0.000548568
0.000723354
0.00077013
0.000891548
0.00101712
0.00114808
0.00129205
0.00142462
0.00151219
0.00153148
0.00146776
0.00131941
0.00109822
0.000835386
0.000592212
5.09517e-05
8.71383e-05
0.000126882
0.000132002
0.000121478
0.000106544
8.76487e-05
7.09143e-05
5.77117e-05
4.75095e-05
3.95878e-05
3.33699e-05
2.84244e-05
2.44515e-05
2.1158e-05
1.8301e-05
1.56639e-05
1.41228e-05
1.08678e-05
0.00136349
0.00190724
0.000683272
0.000667178
0.000707828
0.000774127
0.000870207
0.000979982
0.0010694
0.00110883
0.00108248
0.000991289
0.000848614
0.000680826
0.000550064
0.000655548
0.000179624
5.71046e-05
0.000132036
0.000148239
0.000139721
0.000122303
0.000104752
9.67093e-05
7.81109e-05
6.14549e-05
4.83303e-05
3.82937e-05
3.06574e-05
2.48204e-05
2.03738e-05
1.70684e-05
1.4984e-05
1.40612e-05
3.55299e-05
2.4388e-05
0.00244669
0.00453789
0.000847223
0.000647581
0.000693441
0.000799585
0.000949893
0.00111232
0.00123538
0.00128656
0.00125871
0.00116013
0.00100718
0.000830364
0.000681986
0.000611412
0.000783783
0.000365007
0.000288969
0.000232071
0.000187676
0.00015271
0.000132193
0.000249723
0.000168997
0.000118502
8.6104e-05
6.46463e-05
4.99807e-05
3.968e-05
3.234e-05
2.71561e-05
2.04711e-05
1.7272e-05
6.90292e-05
3.86879e-05
0.00389927
0.00925059
0.00133634
0.000679971
0.000711749
0.000872992
0.00111888
0.00134798
0.00148958
0.00152967
0.00147983
0.00135355
0.00116353
0.000962662
0.000789628
0.000680316
0.000669233
0.00125155
0.000728352
0.000451061
0.000309938
0.00022857
0.000177335
0.000154241
0.000359717
0.000267508
0.00021159
0.000174001
0.000145449
0.000122813
0.000103317
8.52968e-05
6.74013e-05
3.89841e-05
2.6236e-05
0.000123378
5.22575e-05
0.00586511
0.0162821
0.00262227
0.000864343
0.000808916
0.0010611
0.00149318
0.00176146
0.00187282
0.00186598
0.00176847
0.00159126
0.00135207
0.00108903
0.000845342
0.000654483
0.000533037
0.000492111
0.000410825
0.000332756
0.0002681
0.000216088
0.000175034
0.00014637
0.000140723
0.000129142
0.000117527
0.000106168
9.47197e-05
8.34421e-05
7.24931e-05
6.22385e-05
5.28412e-05
4.10061e-05
3.18534e-05
8.5667e-05
5.98336e-05
9.48297e-05
0.000161197
0.000227286
0.00856256
0.024006
0.00585256
0.00177157
0.00141597
0.00193812
0.00234315
0.00247234
0.00245094
0.00234904
0.00217595
0.00192294
0.00159968
0.00124611
0.000917312
0.00065976
0.000491758
0.000401827
0.000345123
0.000295245
0.000246868
0.000203207
0.000167008
0.000140562
0.000125916
0.00011786
0.000111989
0.000105806
9.81185e-05
8.807e-05
7.61767e-05
6.43338e-05
5.36938e-05
4.43148e-05
3.96222e-05
6.05208e-05
6.30008e-05
7.44201e-05
0.000301718
0.000263724
0.0115533
0.0285644
0.0118562
0.00561087
0.00442394
0.00427713
0.00396617
0.00362351
0.00331665
0.0030382
0.00273503
0.00235951
0.00190954
0.00143239
0.000998888
0.000673487
0.000472107
0.000367044
0.0003088
0.000262541
0.000219015
0.000180932
0.000151316
0.000131779
0.000122401
0.000119866
0.00011999
0.000120554
0.000120296
0.000117519
0.000108203
9.61496e-05
8.43534e-05
7.43622e-05
7.22755e-05
8.54729e-05
0.000110126
0.000177479
0.000433354
0.000402861
0.0121251
0.0297323
0.0172747
0.0123878
0.00965734
0.00751619
0.00602184
0.00504901
0.00441827
0.00394498
0.00346817
0.0029003
0.00225065
0.00159337
0.00102109
0.000631655
0.000415391
0.000310522
0.000256275
0.000214702
0.000179308
0.000151772
0.000133294
0.000123779
0.000122077
0.000126052
0.000133843
0.000144923
0.000159477
0.000177526
0.0001979
0.000211422
0.000225482
0.000253352
0.000308253
0.000470643
0.000862582
0.00169599
0.00565235
0.00135314
0.0111312
0.0181956
0.0146006
0.011231
0.0088624
0.00740449
0.00654882
0.00603702
0.0056347
0.00513084
0.00439106
0.0034419
0.0024377
0.00152712
0.000793719
0.000459632
0.000310009
0.000237551
0.000195111
0.000164001
0.000140301
0.000124256
0.000115705
0.000113839
0.0001176
0.000126128
0.000139331
0.000158153
0.000184454
0.000221043
0.000271786
0.000342278
0.000440409
0.000587003
0.000801519
0.00109231
0.00142817
0.00173008
0.00195907
0.00107778
0.00364218
0.00650032
0.00847333
0.0090057
0.00899304
0.00848265
0.00738429
0.00583452
0.0040251
0.00245793
0.00144823
0.00082844
0.000478477
0.000309552
0.00022778
0.000184071
0.000156441
0.000136585
0.000122311
0.000113002
0.000108393
0.000108111
0.000111777
0.000119197
0.000130665
0.000147123
0.000170303
0.000203063
0.000249801
0.000316748
0.000411869
0.000545872
0.000726986
0.000949313
0.00118601
0.00141032
0.0012532
0.000608724
0.00379009
0.00876031
0.00857417
0.00701741
0.00595691
0.00489901
0.00379982
0.00273471
0.00180135
0.00110824
0.000677224
0.000431017
0.000298859
0.000230996
0.000194863
0.000173402
0.000158817
0.000148017
0.000139834
0.000133778
0.000129707
0.000127905
0.000128975
0.000133432
0.000142023
0.00015585
0.000176507
0.000206337
0.00024868
0.000308171
0.00039108
0.000504157
0.000650181
0.000822452
0.00100398
0.00125413
0.000666433
0.000670708
0.00270899
0.00323314
0.00365151
0.00456384
0.00398104
0.00351692
0.00314907
0.00267308
0.00212274
0.00157785
0.001101
0.000741947
0.000507125
0.000364186
0.000277144
0.000221613
0.000184036
0.000157451
0.000138574
0.000125798
0.000118068
0.000114566
0.000114741
0.00011817
0.000124352
0.000133415
0.000145746
0.000162057
0.000183562
0.00021162
0.000247565
0.000293547
0.000352262
0.000427125
0.00052143
0.000646671
0.000680259
0.000514741
0.000413545
0.00059868
)
;

boundaryField
{
    floor
    {
        Cmu             0.09;
        kappa           0.41;
        E               9.8;
        type            epsilonWallFunction;
        value           nonuniform List<scalar> 
29
(
0.000592212
5.09517e-05
8.71383e-05
0.000126882
0.000132002
0.000121478
0.000106544
8.76487e-05
7.09143e-05
5.77117e-05
4.75095e-05
3.95878e-05
3.33699e-05
2.84244e-05
2.44515e-05
2.1158e-05
1.8301e-05
1.56639e-05
1.41228e-05
1.08678e-05
1.08678e-05
2.4388e-05
3.86879e-05
5.22575e-05
0.000592212
5.09517e-05
5.71046e-05
0.000365007
0.00125155
)
;
    }
    ceiling
    {
        Cmu             0.09;
        kappa           0.41;
        E               9.8;
        type            epsilonWallFunction;
        value           nonuniform List<scalar> 
43
(
0.00270899
0.00323314
0.00365151
0.00456384
0.00398104
0.00351692
0.00314907
0.00267308
0.00212274
0.00157785
0.001101
0.000741947
0.000507125
0.000364186
0.000277144
0.000221613
0.000184036
0.000157451
0.000138574
0.000125798
0.000118068
0.000114566
0.000114741
0.00011817
0.000124352
0.000133415
0.000145746
0.000162057
0.000183562
0.00021162
0.000247565
0.000293547
0.000352262
0.000427125
0.00052143
0.000646671
0.000680259
0.000514741
0.000413545
0.00059868
0.0111312
0.0181956
0.00379009
)
;
    }
    sWall
    {
        Cmu             0.09;
        kappa           0.41;
        E               9.8;
        type            epsilonWallFunction;
        value           uniform 0.00270899;
    }
    nWall
    {
        Cmu             0.09;
        kappa           0.41;
        E               9.8;
        type            epsilonWallFunction;
        value           nonuniform List<scalar> 6(0.000227286 0.000263724 0.000402861 0.000608724 0.000670708 0.00059868);
    }
    sideWalls
    {
        type            empty;
    }
    glass1
    {
        Cmu             0.09;
        kappa           0.41;
        E               9.8;
        type            epsilonWallFunction;
        value           nonuniform List<scalar> 9(0.000548568 0.00136349 0.00244669 0.00389927 0.00586511 0.00856256 0.0115533 0.0121251 0.0111312);
    }
    glass2
    {
        Cmu             0.09;
        kappa           0.41;
        E               9.8;
        type            epsilonWallFunction;
        value           nonuniform List<scalar> 2(0.00135314 0.00107778);
    }
    sun
    {
        Cmu             0.09;
        kappa           0.41;
        E               9.8;
        type            epsilonWallFunction;
        value           nonuniform List<scalar> 
14
(
0.000548568
0.000723354
0.00077013
0.000891548
0.00101712
0.00114808
0.00129205
0.00142462
0.00151219
0.00153148
0.00146776
0.00131941
0.00109822
0.000835386
)
;
    }
    heatsource1
    {
        Cmu             0.09;
        kappa           0.41;
        E               9.8;
        type            epsilonWallFunction;
        value           nonuniform List<scalar> 3(9.48297e-05 0.000161197 0.000227286);
    }
    heatsource2
    {
        Cmu             0.09;
        kappa           0.41;
        E               9.8;
        type            epsilonWallFunction;
        value           nonuniform List<scalar> 4(0.000655548 0.000179624 0.000179624 0.000783783);
    }
    Table_master
    {
        Cmu             0.09;
        kappa           0.41;
        E               9.8;
        type            epsilonWallFunction;
        value           nonuniform List<scalar> 9(0.000249723 0.000168997 0.000118502 8.6104e-05 6.46463e-05 4.99807e-05 3.968e-05 3.234e-05 2.71561e-05);
    }
    Table_slave
    {
        Cmu             0.09;
        kappa           0.41;
        E               9.8;
        type            epsilonWallFunction;
        value           nonuniform List<scalar> 9(0.000359717 0.000267508 0.00021159 0.000174001 0.000145449 0.000122813 0.000103317 8.52968e-05 6.74013e-05);
    }
    inlet
    {
        type            turbulentMixingLengthDissipationRateInlet;
        mixingLength    0.01;
        phi             phi;
        k               k;
        value           uniform 0.000101881;
    }
    outlet
    {
        type            zeroGradient;
    }
}


// ************************************************************************* //
