// -*- C++ -*-
// File generated by PyFoam - sorry for the ugliness

FoamFile
{
 version 2.0;
 format ascii;
 class volScalarField;
 location "1200";
 object T;
}

dimensions [ 0 0 0 1 0 0 0 ];

internalField nonuniform List<scalar> 459
(
  302.56
  302.279
  302.264
  302.26
  302.256
  302.251
  302.246
  302.24
  302.231
  302.22
  302.211
  302.205
  302.204
  302.21
  302.226
  302.372
  302.345
  302.335
  302.34
  302.347
  302.354
  302.36
  302.366
  302.373
  302.379
  302.385
  302.392
  302.398
  302.404
  302.411
  302.417
  302.425
  302.435
  302.463
  302.745
  302.32
  302.291
  302.292
  302.293
  302.292
  302.288
  302.278
  302.259
  302.235
  302.212
  302.196
  302.189
  302.19
  302.195
  302.194
  302.194
  302.376
  302.323
  302.315
  302.321
  302.331
  302.339
  302.343
  302.346
  302.349
  302.352
  302.355
  302.358
  302.361
  302.364
  302.369
  302.376
  302.385
  302.4
  302.445
  302.94
  302.373
  302.327
  302.335
  302.347
  302.355
  302.356
  302.341
  302.308
  302.264
  302.224
  302.195
  302.182
  302.182
  302.189
  302.194
  302.196
  302.305
  302.297
  302.305
  302.321
  302.338
  302.352
  302.352
  302.353
  302.354
  302.355
  302.356
  302.357
  302.359
  302.361
  302.363
  302.369
  302.376
  302.39
  302.438
  303.137
  302.44
  302.366
  302.381
  302.409
  302.433
  302.445
  302.423
  302.367
  302.297
  302.235
  302.192
  302.175
  302.177
  302.188
  302.2
  302.207
  302.224
  302.247
  302.278
  302.311
  302.342
  302.37
  302.392
  302.409
  302.424
  302.438
  302.45
  302.46
  302.468
  302.475
  302.481
  302.483
  302.446
  302.416
  302.404
  302.441
  303.33
  302.528
  302.416
  302.427
  302.47
  302.515
  302.54
  302.504
  302.417
  302.318
  302.236
  302.185
  302.165
  302.171
  302.191
  302.214
  302.236
  302.261
  302.292
  302.328
  302.365
  302.4
  302.43
  302.455
  302.478
  302.496
  302.512
  302.524
  302.532
  302.536
  302.536
  302.531
  302.522
  302.493
  302.453
  302.424
  302.44
  302.555
  302.602
  302.607
  303.506
  302.642
  302.502
  302.495
  302.544
  302.611
  302.613
  302.544
  302.432
  302.314
  302.219
  302.164
  302.149
  302.166
  302.201
  302.241
  302.278
  302.316
  302.356
  302.397
  302.436
  302.471
  302.501
  302.526
  302.546
  302.563
  302.576
  302.586
  302.591
  302.59
  302.583
  302.572
  302.556
  302.529
  302.489
  302.452
  302.446
  302.494
  302.517
  302.559
  303.671
  302.824
  302.688
  302.671
  302.702
  302.721
  302.658
  302.533
  302.385
  302.252
  302.16
  302.12
  302.127
  302.168
  302.228
  302.29
  302.345
  302.395
  302.44
  302.481
  302.518
  302.55
  302.575
  302.596
  302.612
  302.625
  302.634
  302.64
  302.641
  302.636
  302.624
  302.607
  302.587
  302.56
  302.525
  302.488
  302.471
  302.484
  302.499
  302.534
  303.906
  303.278
  303.131
  303.061
  302.976
  302.819
  302.611
  302.398
  302.218
  302.098
  302.047
  302.057
  302.112
  302.195
  302.291
  302.375
  302.442
  302.495
  302.536
  302.571
  302.6
  302.624
  302.643
  302.658
  302.669
  302.676
  302.68
  302.681
  302.678
  302.671
  302.66
  302.643
  302.623
  302.599
  302.573
  302.546
  302.537
  302.556
  302.583
  302.739
  304.247
  303.948
  303.656
  303.334
  302.891
  302.454
  302.116
  301.902
  301.812
  301.823
  301.908
  302.028
  302.158
  302.29
  302.421
  302.503
  302.557
  302.595
  302.625
  302.65
  302.671
  302.687
  302.699
  302.707
  302.713
  302.715
  302.715
  302.712
  302.709
  302.704
  302.701
  302.7
  302.701
  302.708
  302.725
  302.753
  302.792
  302.832
  302.86
  302.933
  293.276
  294.981
  297.105
  298.661
  299.769
  300.587
  301.204
  301.666
  302.015
  302.248
  302.392
  302.494
  302.568
  302.618
  302.652
  302.678
  302.699
  302.715
  302.727
  302.736
  302.742
  302.745
  302.747
  302.747
  302.746
  302.746
  302.745
  302.745
  302.745
  302.746
  302.751
  302.759
  302.774
  302.796
  302.823
  302.849
  302.871
  302.927
  294.508
  296.984
  299.208
  300.343
  301.054
  301.543
  301.889
  302.15
  302.345
  302.481
  302.571
  302.632
  302.675
  302.705
  302.726
  302.742
  302.753
  302.762
  302.767
  302.77
  302.772
  302.773
  302.773
  302.773
  302.772
  302.772
  302.771
  302.771
  302.772
  302.773
  302.776
  302.782
  302.792
  302.806
  302.823
  302.844
  302.873
  302.902
  298.336
  298.261
  298.254
  300.581
  301.495
  301.881
  302.116
  302.293
  302.431
  302.539
  302.621
  302.68
  302.722
  302.751
  302.771
  302.785
  302.795
  302.802
  302.807
  302.809
  302.81
  302.81
  302.809
  302.808
  302.806
  302.804
  302.802
  302.8
  302.798
  302.797
  302.795
  302.795
  302.795
  302.797
  302.801
  302.81
  302.82
  302.83
  302.896
  303.002
)
;

boundaryField
{
  floor
  {
    type wallHeatTransfer;
    Tinf uniform 305.2;
    alphaWall uniform 0.24;
    value nonuniform List<scalar> 29
(
  302.517
  302.872
  302.792
  302.745
  302.746
  302.76
  302.779
  302.804
  302.832
  302.859
  302.886
  302.912
  302.937
  302.962
  302.985
  303.008
  303.032
  303.058
  303.079
  303.135
  303.135
  303.017
  302.958
  302.927
  302.517
  302.872
  302.863
  302.625
  302.465
)
;
  }
  ceiling
  {
    type wallHeatTransfer;
    Tinf uniform 303.2;
    alphaWall uniform 0.24;
    value nonuniform List<scalar> 43
(
  298.653
  298.567
  298.551
  300.73
  301.596
  301.962
  302.184
  302.353
  302.485
  302.589
  302.669
  302.728
  302.771
  302.801
  302.822
  302.837
  302.848
  302.856
  302.862
  302.865
  302.867
  302.867
  302.866
  302.865
  302.863
  302.86
  302.857
  302.854
  302.851
  302.848
  302.845
  302.842
  302.84
  302.84
  302.841
  302.847
  302.856
  302.868
  302.928
  303.022
  304.2
  303.918
  295.02
)
;
  }
  sWall
  {
    type wallHeatTransfer;
    Tinf uniform 315.2;
    alphaWall uniform 0.36;
    value uniform 299.936;
  }
  nWall
  {
    type wallHeatTransfer;
    Tinf uniform 307.2;
    alphaWall uniform 0.36;
    value nonuniform List<scalar> 6
(
  303.416
  303.349
  303.253
  303.524
  303.488
  303.59
)
;
  }
  sideWalls
  {
    type empty;
  }
  glass1
  {
    type wallHeatTransfer;
    Tinf uniform 315.2;
    alphaWall uniform 4.3;
    value nonuniform List<scalar> 9
(
  311.037
  310.353
  309.929
  309.611
  309.349
  309.112
  308.947
  309.036
  309.291
)
;
  }
  glass2
  {
    type wallHeatTransfer;
    Tinf uniform 307.2;
    alphaWall uniform 4.3;
    value nonuniform List<scalar> 2
(
  305.452
  305.594
)
;
  }
  sun
  {
    type wallHeatTransfer;
    Tinf uniform 305.2;
    alphaWall uniform 0.24;
    value nonuniform List<scalar> 14
(
  302.824
  302.551
  302.533
  302.519
  302.507
  302.495
  302.483
  302.471
  302.459
  302.448
  302.442
  302.444
  302.455
  302.478
)
;
  }
  heatsource1
  {
    type fixedGradient;
    gradient uniform 0;
  }
  heatsource2
  {
    type fixedGradient;
    gradient uniform 0;
  }
  Table_master
  {
    type zeroGradient;
  }
  Table_slave
  {
    type zeroGradient;
  }
  inlet
  {
    type fixedValue;
    value uniform 290.15;
  }
  outlet
  {
    type zeroGradient;
  }
} 	// ************************************************************************* //

