/*--------------------------------*- C++ -*----------------------------------*=========                 |
  \      /  F ield         | OpenFOAM: The Open Source CFD Toolbox
   \    /   O peration     | Website:  https://openfoam.org
    \  /    A nd           | Version:  6
     \/     M anipulation  |
\*---------------------------------------------------------------------------*/
FoamFile
{
    version     2.0;
    format      ascii;
    class       volScalarField;
    location    "800";
    object      PMV;
}
// * * * * * * * * * * * * * * * * * * * * * * * * * * * * * * * * * * * * * //

dimensions      [0 0 0 0 0 0 0];

internalField   nonuniform List<scalar> 
459
(
1.6327091729748346
1.412794761256862
1.3843875459927102
1.3602605261595822
1.3443704589089034
1.3358914913282802
1.3352419797668094
1.3415606515282994
1.3554632326668004
1.3780679673802132
1.4114515985465972
1.4577697594167156
1.5154322554306565
1.5206892442934112
1.5326362480635418
1.6143243479937615
1.5990413582238305
1.5923544549554363
1.5947426757059906
1.598563734156538
1.6028622844648996
1.6032405939575947
1.5984460860861598
1.598523829185158
1.6005855326314173
1.6033647779412468
1.6061689056982098
1.6100413713462096
1.614863995324753
1.6215925993674836
1.6323543291333111
1.6496587093927648
1.6558649640467413
1.6701857468810133
1.5915226365217
1.43442094868231
1.4236521499410923
1.4019233268275393
1.3888387734960845
1.3813618443938647
1.3806206421310705
1.3832558740219887
1.3892552917573653
1.4006926690531232
1.4210262358625656
1.4527166271659293
1.4978395463738163
1.5063515686051823
1.5120868026676602
1.5154322554306565
1.5221229362087456
1.5888517522351457
1.5847118454751237
1.5794572865017362
1.58184574895839
1.5789501386423064
1.5755146529358046
1.5752339758292184
1.5772648987200684
1.5801436748560305
1.5831807133503908
1.5855680062943966
1.5880638481360254
1.5907188500155136
1.5936166695530884
1.5979415156932153
1.6077192738362114
1.6283545475346404
1.6391550320960018
1.6381479608576721
1.6311311328067168
1.438238006200907
1.4610890079253314
1.4515049318052522
1.4488442327378983
1.4479605084466278
1.4494691149405605
1.4466167542514654
1.4379427909242135
1.4295948458873204
1.4282874228078575
1.440474727408254
1.467996974603224
1.4996601906560865
1.5049177263823126
1.5101750820478355
1.514954338168769
1.4856060358523666
1.5159070108943156
1.5237863262998892
1.5327583915657583
1.5451879058699447
1.5540466095734624
1.5595989647217365
1.5717401314529431
1.5816487992613417
1.5872152694351223
1.5913536411209768
1.5947962028849691
1.5980959499748084
1.599477213264235
1.5973797091287767
1.6013525864738547
1.6199224916833124
1.615675261122709
1.577108576017182
1.7053032951001164
1.4444679816711814
1.491044560887969
1.503983956785041
1.5234707827129987
1.5399801142062968
1.5489661638388028
1.529606775269935
1.4893260262175951
1.4482941489484908
1.4209563849917233
1.4144534364504995
1.4302394371002862
1.4617245311840923
1.4946725927611753
1.5020991231413017
1.4709098273463717
1.4346580975443632
1.4447800526148897
1.473997849985117
1.5029680717598262
1.5294427793240764
1.5543319927857109
1.5746937179670915
1.5857596797276547
1.5874899442537052
1.5898867463178294
1.5940030592903107
1.5994902817721228
1.606258584771304
1.615812888603451
1.6301824016845967
1.6541972425178357
1.6494960245455
1.635938371075613
1.5970240937451767
1.5350709860625211
1.7942704086581214
1.4656222167014614
1.5199640710355664
1.5547442213599723
1.6123124721516164
1.6697084180695536
1.6681301599670173
1.5885150513859354
1.5038811803174459
1.4381798436291724
1.397023324361799
1.382902104657383
1.3949624026809657
1.424561974744865
1.4592656174019722
1.4805043510532148
1.4787216031711474
1.4757350768092665
1.4885621041186146
1.5154378271680418
1.5481983205486531
1.5805012560159784
1.609570470074374
1.6335214745382942
1.6504327318971554
1.657980863018791
1.6632639001932896
1.6676553253570015
1.670494794052674
1.6720511793212713
1.6736768149345038
1.6761804276887564
1.6785171410972994
1.6645269975579102
1.6375499610470228
1.5807980052862105
1.5758480932523689
1.7121820890339077
1.7025313129874953
1.5437231768895983
1.8842919569635892
1.508889585083334
1.573974446587773
1.6125813108037235
1.6868908965430323
1.715521954596422
1.6462139168251366
1.5573915026425191
1.471606870470119
1.4016573098290765
1.3596498631650933
1.3489410482808164
1.3675573800326062
1.4066964161883766
1.4537675674465977
1.4942696203004333
1.5192718445828561
1.5374299642967073
1.5626853859750256
1.5951933064655859
1.6296053938719848
1.6487038702053352
1.6654123631284314
1.678777298727543
1.689754367566119
1.6988214964000674
1.7055020172801998
1.7107506831986397
1.713613473967929
1.7131363479826436
1.7107506831986397
1.7064563408832738
1.6997758837952412
1.679412604882482
1.644064411146102
1.582302666948084
1.5797779506495828
1.6001545050573083
1.6022365229353577
1.6162458997930365
1.9753955602305517
1.6047256806633492
1.7270924152023044
1.7104669361692952
1.7009907683977468
1.6515423431161829
1.5744987566639135
1.4831169474553314
1.3963913068626936
1.3334270936153725
1.3056601430582624
1.3152605917437512
1.355178070224097
1.4161922282744992
1.4866066887585134
1.5525302420657259
1.5823234361469993
1.607638275442956
1.6305603932457204
1.6525231778222544
1.6725723589025954
1.689754367566119
1.7035933425943597
1.7145677189491606
1.7231555016072204
1.729834357043405
1.7350816987119442
1.7379437613015811
1.738420763190547
1.736512740976333
1.731265479220902
1.7241096524433677
1.7150448379406442
1.7035933425943597
1.6683000295911077
1.6091293899388852
1.5859955409560027
1.5771202247396385
1.5541243031901333
1.6385045537182612
2.108060634975997
1.925878868535237
1.8814997411112955
1.7841685233804905
1.7038119746418154
1.5912386558507758
1.4622586503175519
1.346081269724943
1.264132610376261
1.2299743640155034
1.244372213087453
1.2980981800698628
1.3794724190510308
1.4784395569083681
1.5589161279402066
1.6009518361022799
1.6343803120017613
1.6606387681617436
1.6821182685150973
1.7002530740961173
1.7159990689142854
1.7288802635599252
1.7388977626326183
1.746529419036123
1.752252744140634
1.7565450005613257
1.758452604251086
1.7594063908330324
1.7579757071407796
1.7551142711588044
1.7498680691191033
1.7417597077704616
1.7331736083392424
1.7226784226272593
1.7107506831986397
1.6997758837952412
1.6751641812909719
1.66164010196152
1.6055623923934668
1.5311617598062344
2.3067988576605534
2.177564997509181
2.015572318053893
1.8207069882343756
1.5330734106726531
1.2839035037159165
1.1173113023337824
1.0403565451218506
1.044656076803992
1.1142165837162767
1.2285633682481691
1.364284766418064
1.4953584381295204
1.5656033433782186
1.6296053938719848
1.6692310871272658
1.695003856560803
1.7140905976241385
1.7293573115033478
1.742236690019423
1.7514300835503631
1.754432428059593
1.7560179120225818
1.7571071538182492
1.756973283720513
1.75554885053823
1.75225761626431
1.7471652248504566
1.7404132281150475
1.7315453212871132
1.7208243414461757
1.7093813523149652
1.6986864564648654
1.685509859580831
1.6715531868259677
1.659343582662642
1.6508506352759058
1.6449787814360055
1.6321152341676033
1.6055482057332429
-2.9983132198672986
-2.115024325209476
-1.2597053253988049
-0.40921651160660133
0.2103055107689866
0.6762253047250488
1.0480080637862772
1.2734450622280646
1.4461191700278297
1.5507937858451883
1.616152624273542
1.642791992931843
1.6683223626884425
1.6879221270686335
1.7030789069249754
1.7146533300476625
1.7235529465039412
1.7299370039081445
1.7334995004341072
1.7353055945377227
1.7354963662928975
1.734180014844032
1.7318616576530728
1.7288744756127794
1.7250830810517008
1.7204989864687183
1.7162475913247959
1.712067323230886
1.708326490512042
1.7057499897290311
1.7037786605597098
1.7029647507225736
1.702891793256841
1.7050386962125614
1.7142121974966875
1.7441962834878642
1.846093011868146
1.7104022215947383
-2.5312980952499506
-1.0257531456471893
0.0628709560496003
0.6295899215187681
0.9367696185426364
1.1458670963296163
1.3007693859381881
1.4199212249167588
1.5105536258992973
1.5738492465956433
1.6172556715634525
1.6490653659682228
1.6721284523990796
1.6886457668761652
1.70123173065936
1.710792740246247
1.7178191271027883
1.7224121017621907
1.7252278534696446
1.7269000649175197
1.7280234385384519
1.7281538613046472
1.7281436291425198
1.7274154024888864
1.7264694965434737
1.724905829148141
1.723922363605853
1.7233726755626553
1.7237114974898415
1.7266845033189038
1.7326793305888903
1.7427742653314466
1.7546866806718242
1.7667728640125346
1.7816818337355418
1.842821019564755
1.7470365851615919
1.831519758701838
-0.7741830337322771
-0.9124409820006294
-0.7958227110638746
0.4696193429652698
0.9719820151528874
1.1775415491161385
1.304517564200808
1.4025738462697717
1.4811153307384683
1.544020891651286
1.5942132863576743
1.632367628192671
1.6599783267296666
1.6799096034248078
1.6946527779483966
1.7043495316518413
1.7113238465796907
1.715899909559007
1.7188833099864484
1.7205765767857923
1.721237537248381
1.7220433906968464
1.7225829052617991
1.722875435972707
1.7234120582478512
1.723590470635195
1.7244994190330987
1.7253442940242991
1.727430054960162
1.7305687656086797
1.735638514422213
1.744435522526665
1.7613212875087654
1.791479056087119
1.821856280547348
1.8256684723990715
1.8313864118049998
1.7661603937613488
1.7716432109363816
1.6756145961548823
)
;

boundaryField
{
    ".*"
    {
        type            zeroGradient;
    }
}


// ************************************************************************* //
