// -*- C++ -*-
// File generated by PyFoam - sorry for the ugliness

FoamFile
{
 version 2.0;
 format ascii;
 class volVectorField;
 location "800";
 object U;
}

dimensions [ 0 1 -1 0 0 0 0 ];

internalField nonuniform List<vector> 459
(
  (0.0289471 0.0896158 0)
  (-0.174757 0.0277719 0)
  (-0.202431 0.018007 0)
  (-0.233579 0.0110964 0)
  (-0.254231 0.00365361 0)
  (-0.263188 -0.00411045 0)
  (-0.258704 -0.0121617 0)
  (-0.24105 -0.0203273 0)
  (-0.211667 -0.0274227 0)
  (-0.173748 -0.0322184 0)
  (-0.131602 -0.0339963 0)
  (-0.0896804 -0.0323916 0)
  (-0.052065 -0.0272159 0)
  (-0.0236477 -0.0187467 0)
  (-0.0228772 -0.00920312 0)
  (-0.0102744 0.0105603 0)
  (-0.0344723 -0.0181768 0)
  (-0.0108841 -0.0300107 0)
  (0.016969 -0.0240509 0)
  (0.034882 -0.0168688 0)
  (0.05017 -0.0111526 0)
  (0.0600806 -0.00657929 0)
  (0.065406 -0.00414934 0)
  (0.0679119 -0.00315867 0)
  (0.0692343 -0.00271174 0)
  (0.0701266 -0.00241791 0)
  (0.0707198 -0.00217161 0)
  (0.0709397 -0.00189378 0)
  (0.0705636 -0.00138806 0)
  (0.0689942 -0.000259474 0)
  (0.0649533 0.0020495 0)
  (0.0570079 0.00467179 0)
  (0.0484338 0.0074067 0)
  (-0.00921932 0.0239712 0)
  (0.203476 0.182988 0)
  (-0.159905 0.073243 0)
  (-0.161538 0.0546751 0)
  (-0.193368 0.0401521 0)
  (-0.213763 0.0238525 0)
  (-0.222979 0.00583256 0)
  (-0.219124 -0.0137681 0)
  (-0.202806 -0.0331464 0)
  (-0.176107 -0.0492156 0)
  (-0.142555 -0.0594479 0)
  (-0.106164 -0.0629303 0)
  (-0.0706278 -0.0596782 0)
  (-0.0390482 -0.0500805 0)
  (-0.0137072 -0.0349645 0)
  (0.00145763 -0.0187862 0)
  (0.0131783 -0.0038543 0)
  (0.00911026 0.0188927 0)
  (0.0622261 0.0422981 0)
  (0.0242887 -0.0208692 0)
  (0.0352633 -0.0364752 0)
  (0.0480438 -0.0330827 0)
  (0.05856 -0.0243405 0)
  (0.0665542 -0.01567 0)
  (0.0701776 -0.00693879 0)
  (0.0709689 -0.00191956 0)
  (0.0709488 0.000124421 0)
  (0.0710876 0.000990984 0)
  (0.0713388 0.0015028 0)
  (0.071523 0.00191607 0)
  (0.071602 0.00245333 0)
  (0.0715038 0.00345422 0)
  (0.0706845 0.00587276 0)
  (0.066625 0.0124429 0)
  (0.0563871 0.0183676 0)
  (0.0503949 0.0233329 0)
  (-0.049887 0.0512876 0)
  (0.363495 0.27311 0)
  (-0.172762 0.11528 0)
  (-0.120603 0.0876284 0)
  (-0.150807 0.0624579 0)
  (-0.168707 0.0357167 0)
  (-0.176557 0.00646847 0)
  (-0.171108 -0.024971 0)
  (-0.15407 -0.0551766 0)
  (-0.128596 -0.0789738 0)
  (-0.0988416 -0.0927868 0)
  (-0.0682007 -0.0961993 0)
  (-0.0392533 -0.0900101 0)
  (-0.0140281 -0.0755264 0)
  (0.00746969 -0.0535182 0)
  (0.0220049 -0.0294266 0)
  (0.0310322 -0.00364362 0)
  (0.0331175 0.0348345 0)
  (0.120163 -0.0241988 0)
  (0.0822149 -0.0404662 0)
  (0.0764395 -0.0436257 0)
  (0.0780131 -0.0386085 0)
  (0.0795358 -0.0299205 0)
  (0.081159 -0.0220013 0)
  (0.079712 -0.0172651 0)
  (0.0738228 -0.0118369 0)
  (0.0694605 -0.00885964 0)
  (0.0674057 -0.0071452 0)
  (0.0664313 -0.00603552 0)
  (0.0658345 -0.00526266 0)
  (0.0655815 -0.00460816 0)
  (0.066201 -0.00361697 0)
  (0.0689642 -0.000184785 0)
  (0.0667997 0.0176914 0)
  (0.0529188 0.0306974 0)
  (0.0554305 0.0404389 0)
  (-0.087117 0.0789059 0)
  (0.508205 0.345241 0)
  (-0.203974 0.151886 0)
  (-0.0782881 0.115406 0)
  (-0.10571 0.0812154 0)
  (-0.118007 0.0460964 0)
  (-0.121021 0.00650392 0)
  (-0.109454 -0.0370508 0)
  (-0.0899811 -0.0771706 0)
  (-0.0660614 -0.10672 0)
  (-0.0419168 -0.121992 0)
  (-0.0191398 -0.124207 0)
  (0.00141749 -0.114795 0)
  (0.0187166 -0.096163 0)
  (0.0336142 -0.0714318 0)
  (0.047128 -0.0436085 0)
  (0.0625351 -0.0145056 0)
  (0.0842335 0.0195307 0)
  (0.117839 0.0269052 0)
  (0.121105 -0.0199975 0)
  (0.10548 -0.0355824 0)
  (0.0948435 -0.0371725 0)
  (0.0882014 -0.0335543 0)
  (0.0830042 -0.0269082 0)
  (0.0792256 -0.0180731 0)
  (0.0797904 -0.0104826 0)
  (0.0846177 -0.00732597 0)
  (0.0882429 -0.00553866 0)
  (0.0898866 -0.00430201 0)
  (0.0901217 -0.00306742 0)
  (0.0886382 -0.00152 0)
  (0.0847114 0.00054698 0)
  (0.0771069 0.00349548 0)
  (0.0628056 0.00794837 0)
  (0.0509931 0.0288042 0)
  (0.0390885 0.0464931 0)
  (0.0586729 0.0608966 0)
  (-0.12877 0.102265 0)
  (0.633315 0.400702 0)
  (-0.243799 0.181127 0)
  (-0.0373718 0.130946 0)
  (-0.0585888 0.0915092 0)
  (-0.0619182 0.0507949 0)
  (-0.0530566 0.00204615 0)
  (-0.0306064 -0.0531935 0)
  (-0.00929004 -0.0988485 0)
  (0.0103323 -0.12956 0)
  (0.0252191 -0.14213 0)
  (0.0369186 -0.141037 0)
  (0.0456635 -0.128931 0)
  (0.0523645 -0.108597 0)
  (0.0583486 -0.083009 0)
  (0.0648648 -0.0555137 0)
  (0.0737681 -0.0298255 0)
  (0.0876733 -0.0127685 0)
  (0.0987146 -0.0172406 0)
  (0.0989749 -0.0284233 0)
  (0.0913849 -0.031438 0)
  (0.0816234 -0.0297643 0)
  (0.0731011 -0.0261739 0)
  (0.0662305 -0.0210789 0)
  (0.0614949 -0.014579 0)
  (0.0599545 -0.00713753 0)
  (0.0612688 -0.00324042 0)
  (0.0628558 -0.00162222 0)
  (0.0641402 -0.00046234 0)
  (0.0652346 0.00134414 0)
  (0.0655907 0.00420091 0)
  (0.064471 0.00832572 0)
  (0.0613257 0.0140512 0)
  (0.0553473 0.0221871 0)
  (0.0484708 0.0379889 0)
  (0.0380375 0.0574969 0)
  (0.0665171 0.0795995 0)
  (-0.0327998 0.114119 0)
  (0.0478826 0.0293837 0)
  (-0.068104 -0.0374887 0)
  (-0.284178 -0.0607937 0)
  (0.724648 0.44629 0)
  (-0.283305 0.199765 0)
  (-0.00602589 0.125225 0)
  (-0.00858853 0.0892404 0)
  (0.0032442 0.042897 0)
  (0.0371453 -0.0182664 0)
  (0.0645056 -0.075054 0)
  (0.0829843 -0.116308 0)
  (0.0930205 -0.140731 0)
  (0.0960108 -0.149371 0)
  (0.0941106 -0.144931 0)
  (0.0890129 -0.130448 0)
  (0.0825453 -0.109107 0)
  (0.0765002 -0.0839625 0)
  (0.0722789 -0.0580982 0)
  (0.0710137 -0.0350732 0)
  (0.0730959 -0.0192645 0)
  (0.074358 -0.0156348 0)
  (0.0707533 -0.0182771 0)
  (0.0628343 -0.0204693 0)
  (0.053559 -0.0202069 0)
  (0.0452878 -0.0182093 0)
  (0.0387434 -0.015004 0)
  (0.0343879 -0.0108767 0)
  (0.0326487 -0.0066768 0)
  (0.0332143 -0.00461403 0)
  (0.0348694 -0.00392978 0)
  (0.0370902 -0.00322372 0)
  (0.0396888 -0.00140296 0)
  (0.0427109 0.0022723 0)
  (0.0449151 0.00786606 0)
  (0.046193 0.0154121 0)
  (0.0466153 0.0254219 0)
  (0.0475657 0.0399074 0)
  (0.046295 0.0587279 0)
  (0.0744833 0.0839789 0)
  (0.0484713 0.105325 0)
  (0.0969983 0.0703995 0)
  (0.121509 0.0454573 0)
  (-0.137314 -0.00947517 0)
  (0.784963 0.487811 0)
  (-0.301532 0.182866 0)
  (0.0277549 0.0663932 0)
  (0.0633476 0.0487301 0)
  (0.102441 0.00663224 0)
  (0.14588 -0.0511243 0)
  (0.171298 -0.0970443 0)
  (0.181036 -0.126807 0)
  (0.177557 -0.141378 0)
  (0.164287 -0.14273 0)
  (0.14494 -0.133493 0)
  (0.122806 -0.116707 0)
  (0.100707 -0.0953843 0)
  (0.0808556 -0.0720302 0)
  (0.0646396 -0.0489727 0)
  (0.0528679 -0.0292787 0)
  (0.0453811 -0.0159387 0)
  (0.0398497 -0.0107945 0)
  (0.0335671 -0.0108996 0)
  (0.0259775 -0.0121082 0)
  (0.0182134 -0.0123189 0)
  (0.011441 -0.0115166 0)
  (0.00622065 -0.010025 0)
  (0.0029419 -0.00812013 0)
  (0.00185382 -0.00644598 0)
  (0.00262991 -0.00596924 0)
  (0.00451066 -0.00622101 0)
  (0.00713311 -0.00624503 0)
  (0.0104765 -0.00511665 0)
  (0.0147803 -0.00184115 0)
  (0.0207568 0.00427042 0)
  (0.026325 0.0121824 0)
  (0.0322417 0.0219339 0)
  (0.0401963 0.0344468 0)
  (0.0484846 0.0494985 0)
  (0.0745596 0.0699378 0)
  (0.0879586 0.0792451 0)
  (0.124632 0.0529624 0)
  (0.166953 0.0429137 0)
  (-0.0340597 0.0951288 0)
  (0.893808 0.485154 0)
  (-0.0494213 0.159872 0)
  (0.124593 -0.0272973 0)
  (0.225221 -0.0716427 0)
  (0.273347 -0.0896011 0)
  (0.293834 -0.106643 0)
  (0.295841 -0.119999 0)
  (0.280952 -0.126314 0)
  (0.25226 -0.125069 0)
  (0.214653 -0.116944 0)
  (0.173125 -0.103147 0)
  (0.131873 -0.0856465 0)
  (0.0940487 -0.0665108 0)
  (0.0616299 -0.0471848 0)
  (0.035613 -0.028977 0)
  (0.0169815 -0.0146389 0)
  (0.00502589 -0.00609141 0)
  (-0.00255448 -0.0032254 0)
  (-0.00849908 -0.00379 0)
  (-0.0142757 -0.00511625 0)
  (-0.019733 -0.00599775 0)
  (-0.0243904 -0.00635247 0)
  (-0.0279315 -0.00637087 0)
  (-0.0301464 -0.00629117 0)
  (-0.0309928 -0.00648062 0)
  (-0.0307867 -0.00723556 0)
  (-0.029998 -0.00830794 0)
  (-0.0288238 -0.00922813 0)
  (-0.0271466 -0.00949207 0)
  (-0.0245476 -0.00849493 0)
  (-0.0198797 -0.00549118 0)
  (-0.0106832 1.0372e-05 0)
  (-0.00257209 0.00695906 0)
  (0.0090725 0.0145351 0)
  (0.0214655 0.0214889 0)
  (0.0441521 0.0301156 0)
  (0.065181 0.0246571 0)
  (0.0856306 -0.00167397 0)
  (0.14659 0.0502386 0)
  (-0.466954 0.215429 0)
  (1.04711 0.427411 0)
  (0.496109 0.278754 0)
  (0.516698 0.169802 0)
  (0.551296 0.0835363 0)
  (0.52596 0.0235057 0)
  (0.47271 -0.0200914 0)
  (0.411585 -0.0484561 0)
  (0.345946 -0.0628252 0)
  (0.277231 -0.0660273 0)
  (0.209334 -0.0613303 0)
  (0.146199 -0.0513078 0)
  (0.0910047 -0.0386558 0)
  (0.0450885 -0.0255331 0)
  (0.00806937 -0.0131398 0)
  (-0.0195198 -0.00338326 0)
  (-0.0341788 0.00109031 0)
  (-0.0422443 0.00258566 0)
  (-0.0467107 0.00219677 0)
  (-0.0500207 0.00086296 0)
  (-0.0532674 -0.000559273 0)
  (-0.0566088 -0.00173586 0)
  (-0.0597624 -0.00270807 0)
  (-0.062503 -0.00358788 0)
  (-0.0647607 -0.00448798 0)
  (-0.0666414 -0.00552942 0)
  (-0.0684707 -0.00671207 0)
  (-0.0706678 -0.00780135 0)
  (-0.0735955 -0.00842434 0)
  (-0.0776132 -0.00810213 0)
  (-0.0832065 -0.00620573 0)
  (-0.0910384 -0.0020075 0)
  (-0.100599 0.00496991 0)
  (-0.110898 0.0146205 0)
  (-0.126487 0.0272991 0)
  (-0.150644 0.0429681 0)
  (-0.185508 0.0601765 0)
  (-0.235721 0.0746405 0)
  (-0.296756 0.0841661 0)
  (-0.374936 0.0890487 0)
  (-0.649816 0.084063 0)
  (-0.15612 -0.0281634 0)
  (0.0936405 -0.0547955 0)
  (0.172024 -0.067305 0)
  (0.155368 -0.0548608 0)
  (0.130917 -0.0380756 0)
  (0.102071 -0.0232871 0)
  (0.0658877 -0.0109766 0)
  (0.0273663 -0.00175466 0)
  (-0.0103093 0.00473844 0)
  (-0.0387869 0.00779897 0)
  (-0.0592481 0.00902966 0)
  (-0.0722607 0.00888472 0)
  (-0.0789091 0.007345 0)
  (-0.0821108 0.00514515 0)
  (-0.0837084 0.00303523 0)
  (-0.0847568 0.000897889 0)
  (-0.0860189 -0.00127785 0)
  (-0.08777 -0.00335279 0)
  (-0.0899066 -0.00523014 0)
  (-0.0923729 -0.00683332 0)
  (-0.0950825 -0.00804428 0)
  (-0.0979622 -0.00877323 0)
  (-0.100983 -0.00913813 0)
  (-0.104295 -0.00911846 0)
  (-0.108051 -0.00855653 0)
  (-0.112268 -0.00716549 0)
  (-0.116797 -0.00456589 0)
  (-0.121333 -0.000310049 0)
  (-0.125292 0.00579574 0)
  (-0.128627 0.0143788 0)
  (-0.131373 0.0263437 0)
  (-0.13378 0.0423058 0)
  (-0.136441 0.0618905 0)
  (-0.139359 0.0821923 0)
  (-0.138768 0.0949743 0)
  (-0.117756 0.0856202 0)
  (-0.0518456 0.0292438 0)
  (-0.206711 -0.184554 0)
  (0.0567486 0.190183 0)
  (0.00510348 0.0548299 0)
  (-0.0374282 0.00609626 0)
  (-0.0670771 0.00715911 0)
  (-0.0898075 0.0150426 0)
  (-0.105721 0.0211296 0)
  (-0.115086 0.0255372 0)
  (-0.121126 0.0283524 0)
  (-0.124912 0.0290978 0)
  (-0.126422 0.0280598 0)
  (-0.126187 0.0267156 0)
  (-0.12455 0.0255656 0)
  (-0.122142 0.0246628 0)
  (-0.119768 0.024268 0)
  (-0.117755 0.0246652 0)
  (-0.11621 0.0257053 0)
  (-0.115186 0.0270973 0)
  (-0.114651 0.0285002 0)
  (-0.114523 0.0295564 0)
  (-0.114732 0.0299849 0)
  (-0.115212 0.0296241 0)
  (-0.115907 0.02845 0)
  (-0.116881 0.0266867 0)
  (-0.118119 0.0247249 0)
  (-0.119568 0.0227412 0)
  (-0.121105 0.0208654 0)
  (-0.122481 0.0192083 0)
  (-0.123227 0.0183779 0)
  (-0.122715 0.0192293 0)
  (-0.119907 0.0225824 0)
  (-0.11338 0.0293919 0)
  (-0.101893 0.0406189 0)
  (-0.0853592 0.0562848 0)
  (-0.0650392 0.0728556 0)
  (-0.0428373 0.080864 0)
  (0.0348329 0.0373435 0)
  (0.149996 -0.054248 0)
  (-0.0511442 -0.0628026 0)
  (-0.0889394 -0.343581 0)
  (-0.443865 -0.13849 0)
  (-0.333178 0.040711 0)
  (-0.300696 -0.039715 0)
  (-0.262294 -0.0435391 0)
  (-0.253289 -0.0357204 0)
  (-0.246001 -0.0287126 0)
  (-0.236433 -0.0242691 0)
  (-0.223979 -0.0219649 0)
  (-0.20943 -0.0219309 0)
  (-0.194219 -0.0245327 0)
  (-0.179916 -0.0292461 0)
  (-0.167497 -0.0347403 0)
  (-0.157244 -0.0403537 0)
  (-0.1491 -0.0459943 0)
  (-0.14278 -0.0516742 0)
  (-0.137842 -0.0573173 0)
  (-0.133893 -0.0628187 0)
  (-0.130675 -0.0679286 0)
  (-0.128035 -0.0722798 0)
  (-0.12591 -0.075519 0)
  (-0.12429 -0.0774143 0)
  (-0.123183 -0.0778741 0)
  (-0.122581 -0.0769288 0)
  (-0.122419 -0.0746904 0)
  (-0.122566 -0.0715542 0)
  (-0.122803 -0.0675786 0)
  (-0.122836 -0.0626772 0)
  (-0.122291 -0.0566466 0)
  (-0.12062 -0.0497296 0)
  (-0.116812 -0.0418989 0)
  (-0.109133 -0.0330155 0)
  (-0.0951362 -0.0226579 0)
  (-0.0726414 -0.0101009 0)
  (-0.041826 0.00520704 0)
  (0.000586263 0.0228375 0)
  (0.0422359 0.0167805 0)
  (0.104293 -0.0356163 0)
  (0.118713 -0.0762374 0)
  (-0.514949 0.0193937 0)
)
;

boundaryField
{
  floor
  {
    type noSlip;
  }
  ceiling
  {
    type noSlip;
  }
  sWall
  {
    type noSlip;
  }
  nWall
  {
    type noSlip;
  }
  sideWalls
  {
    type empty;
  }
  glass1
  {
    type noSlip;
  }
  glass2
  {
    type noSlip;
  }
  sun
  {
    type noSlip;
  }
  heatsource1
  {
    type noSlip;
  }
  heatsource2
  {
    type noSlip;
  }
  Table_master
  {
    type noSlip;
  }
  Table_slave
  {
    type noSlip;
  }
  inlet
  {
    type fixedValue;
    value uniform (0.277164 -0.114805 0);
  }
  outlet
  {
    type zeroGradient;
  }
} 	// ************************************************************************* //

