/*--------------------------------*- C++ -*----------------------------------*\
  =========                 |
  \\      /  F ield         | OpenFOAM: The Open Source CFD Toolbox
   \\    /   O peration     | Website:  https://openfoam.org
    \\  /    A nd           | Version:  6
     \\/     M anipulation  |
\*---------------------------------------------------------------------------*/
FoamFile
{
    version     2.0;
    format      ascii;
    class       volScalarField;
    location    "700";
    object      epsilon;
}
// * * * * * * * * * * * * * * * * * * * * * * * * * * * * * * * * * * * * * //

dimensions      [0 2 -3 0 0 0 0];

internalField   nonuniform List<scalar> 
459
(
0.000538018
0.000708115
0.000751894
0.000869826
0.000991562
0.00111796
0.00125591
0.00138621
0.00147476
0.00149883
0.00144289
0.00130447
0.00109548
0.000848698
0.000617413
5.04655e-05
8.74195e-05
0.000126393
0.000129419
0.000118726
0.000104044
8.59306e-05
6.98841e-05
5.71486e-05
4.72436e-05
3.95066e-05
3.34001e-05
2.8533e-05
2.46e-05
2.13227e-05
1.84653e-05
1.5811e-05
1.4268e-05
1.09708e-05
0.00134705
0.00189419
0.000669397
0.000652363
0.00069108
0.000753692
0.000844104
0.000950075
0.00103914
0.00108238
0.00106247
0.000978509
0.000841855
0.000680699
0.000555169
0.000672986
0.000166131
5.79968e-05
0.000135078
0.00014846
0.000138468
0.000120308
0.000102563
9.42698e-05
7.64667e-05
6.05005e-05
4.78433e-05
3.81009e-05
3.06416e-05
2.49221e-05
2.05448e-05
1.73007e-05
1.52887e-05
1.44124e-05
3.64347e-05
2.49471e-05
0.00242778
0.00453791
0.000835309
0.000633385
0.000675764
0.000775773
0.000917901
0.00107602
0.00120051
0.00125805
0.00123832
0.00114844
0.00100111
0.000831076
0.00068353
0.000614287
0.000777649
0.000388955
0.000297331
0.000233766
0.000186296
0.00015023
0.000129337
0.000244074
0.000166463
0.000117625
8.60898e-05
6.50727e-05
5.06231e-05
4.04238e-05
3.31171e-05
2.79313e-05
2.11746e-05
1.78858e-05
6.99538e-05
3.95564e-05
0.00388232
0.00927564
0.00132704
0.000665212
0.000691386
0.000842476
0.00107409
0.00130206
0.00144962
0.00149935
0.00145894
0.00134377
0.00115975
0.000962506
0.000790066
0.000679076
0.000665964
0.00125428
0.000724478
0.00044467
0.000303225
0.000222216
0.000171731
0.00014929
0.000349977
0.000263115
0.000210654
0.000175354
0.000148235
0.00012612
0.000106958
8.90517e-05
7.09998e-05
4.13488e-05
2.75481e-05
0.000122316
5.34444e-05
0.0058548
0.0163354
0.00261625
0.000846406
0.000780019
0.00101174
0.00142431
0.00170463
0.00182904
0.00183418
0.00174761
0.00158152
0.00135118
0.0010935
0.0008506
0.000656986
0.0005309
0.000486226
0.000403037
0.00032366
0.00025852
0.000207047
0.000167375
0.0001405
0.000136185
0.000126316
0.000116263
0.000106196
9.56766e-05
8.4938e-05
7.44825e-05
6.46812e-05
5.5642e-05
4.36079e-05
3.35128e-05
8.57104e-05
6.0424e-05
9.53777e-05
0.000162302
0.00022875
0.00856335
0.0240713
0.00583827
0.00173786
0.00134769
0.0018009
0.00225555
0.0024122
0.00240681
0.0023158
0.00215464
0.00191512
0.0016041
0.00125797
0.000929932
0.000667644
0.000492682
0.00039663
0.000336061
0.000284138
0.000235413
0.000192931
0.00015898
0.000135268
0.000123205
0.000117364
0.000113311
0.00010853
0.000101683
9.18025e-05
7.95938e-05
6.74561e-05
5.65544e-05
4.67845e-05
4.10678e-05
6.10735e-05
6.27447e-05
7.47442e-05
0.000303363
0.000265419
0.0115726
0.0286281
0.0118029
0.00550717
0.00423209
0.00416195
0.00389729
0.00357645
0.0032784
0.00300684
0.00271564
0.00235641
0.00192198
0.00145406
0.0010206
0.000687119
0.000475187
0.000361603
0.000298647
0.000250771
0.000207839
0.00017192
0.000145361
0.000129142
0.000122814
0.000122831
0.000125069
0.000127306
0.000128057
0.000125263
0.000114476
0.00010095
8.79174e-05
7.68172e-05
7.3268e-05
8.61027e-05
0.000113324
0.00019255
0.000445456
0.000418533
0.0121492
0.0298807
0.0172907
0.0123768
0.00969042
0.00754363
0.00602856
0.00503448
0.00438962
0.00391552
0.00345331
0.0029071
0.00227673
0.00162955
0.00105529
0.000651017
0.000419629
0.000304967
0.000246872
0.000205207
0.000171541
0.000146726
0.000131352
0.000124919
0.000126034
0.000132515
0.000142572
0.000155691
0.000171966
0.000191198
0.000211784
0.000221865
0.000234593
0.000261665
0.000317303
0.000496169
0.000967066
0.00194361
0.00563333
0.00149018
0.0111498
0.0182442
0.0146477
0.0112444
0.00885759
0.00737627
0.00649836
0.00597244
0.00557134
0.00509001
0.00439212
0.00347775
0.00249372
0.00158843
0.000850331
0.000478255
0.000313524
0.000235031
0.000190795
0.000159989
0.000138028
0.000124288
0.000118157
0.000118618
0.000124538
0.000135092
0.000150251
0.000170991
0.000199185
0.000237612
0.000290045
0.000362045
0.000461451
0.000613636
0.0008354
0.00113125
0.00145973
0.0017296
0.00192675
0.00115301
0.00371242
0.00658261
0.00850139
0.00900282
0.00897771
0.00847414
0.00740987
0.00591596
0.00419004
0.0025776
0.00153233
0.000881891
0.000507507
0.00032278
0.00023406
0.000187649
0.00015931
0.000139744
0.000126154
0.00011795
0.000114735
0.000115832
0.000120679
0.000129097
0.00014143
0.000158674
0.000182644
0.000216329
0.000264396
0.000333072
0.00042971
0.000563505
0.000736085
0.000925378
0.0010721
0.00110277
0.000958307
0.000602572
0.00379975
0.00865723
0.00853132
0.00700983
0.00599322
0.00496608
0.00387977
0.00281917
0.00188425
0.0011678
0.0007163
0.000455857
0.000315606
0.000244087
0.000206663
0.00018461
0.00016932
0.000157455
0.000147915
0.000140519
0.000135839
0.000134157
0.000135707
0.000140956
0.000150681
0.00016603
0.000188668
0.000221037
0.000266679
0.000330435
0.000418693
0.000537603
0.000687008
0.000857272
0.00098204
0.0010861
0.000823901
0.000625602
0.00271371
0.00323637
0.00365379
0.00456358
0.00400018
0.00353819
0.00318168
0.00271763
0.0021741
0.00162939
0.00114536
0.000772852
0.000524812
0.000372764
0.000280629
0.000222699
0.000184324
0.000157908
0.000139806
0.00012822
0.00012202
0.000120484
0.000122326
0.000127088
0.000134681
0.000145269
0.000159277
0.000177452
0.000201071
0.000231879
0.000270944
0.000320502
0.000383308
0.0004629
0.000562821
0.000719284
0.000764108
0.000706389
0.000572884
0.000448572
)
;

boundaryField
{
    floor
    {
        Cmu             0.09;
        kappa           0.41;
        E               9.8;
        type            epsilonWallFunction;
        value           nonuniform List<scalar> 
29
(
0.000617413
5.04655e-05
8.74195e-05
0.000126393
0.000129419
0.000118726
0.000104044
8.59306e-05
6.98841e-05
5.71486e-05
4.72436e-05
3.95066e-05
3.34001e-05
2.8533e-05
2.46e-05
2.13227e-05
1.84653e-05
1.5811e-05
1.4268e-05
1.09708e-05
1.09708e-05
2.49471e-05
3.95564e-05
5.34444e-05
0.000617413
5.04655e-05
5.79968e-05
0.000388955
0.00125428
)
;
    }
    ceiling
    {
        Cmu             0.09;
        kappa           0.41;
        E               9.8;
        type            epsilonWallFunction;
        value           nonuniform List<scalar> 
43
(
0.00271371
0.00323637
0.00365379
0.00456358
0.00400018
0.00353819
0.00318168
0.00271763
0.0021741
0.00162939
0.00114536
0.000772852
0.000524812
0.000372764
0.000280629
0.000222699
0.000184324
0.000157908
0.000139806
0.00012822
0.00012202
0.000120484
0.000122326
0.000127088
0.000134681
0.000145269
0.000159277
0.000177452
0.000201071
0.000231879
0.000270944
0.000320502
0.000383308
0.0004629
0.000562821
0.000719284
0.000764108
0.000706389
0.000572884
0.000448572
0.0111498
0.0182442
0.00379975
)
;
    }
    sWall
    {
        Cmu             0.09;
        kappa           0.41;
        E               9.8;
        type            epsilonWallFunction;
        value           uniform 0.00271371;
    }
    nWall
    {
        Cmu             0.09;
        kappa           0.41;
        E               9.8;
        type            epsilonWallFunction;
        value           nonuniform List<scalar> 6(0.00022875 0.000265419 0.000418533 0.000602572 0.000625602 0.000448572);
    }
    sideWalls
    {
        type            empty;
    }
    glass1
    {
        Cmu             0.09;
        kappa           0.41;
        E               9.8;
        type            epsilonWallFunction;
        value           nonuniform List<scalar> 9(0.000538018 0.00134705 0.00242778 0.00388232 0.0058548 0.00856335 0.0115726 0.0121492 0.0111498);
    }
    glass2
    {
        Cmu             0.09;
        kappa           0.41;
        E               9.8;
        type            epsilonWallFunction;
        value           nonuniform List<scalar> 2(0.00149018 0.00115301);
    }
    sun
    {
        Cmu             0.09;
        kappa           0.41;
        E               9.8;
        type            epsilonWallFunction;
        value           nonuniform List<scalar> 
14
(
0.000538018
0.000708115
0.000751894
0.000869826
0.000991562
0.00111796
0.00125591
0.00138621
0.00147476
0.00149883
0.00144289
0.00130447
0.00109548
0.000848698
)
;
    }
    heatsource1
    {
        Cmu             0.09;
        kappa           0.41;
        E               9.8;
        type            epsilonWallFunction;
        value           nonuniform List<scalar> 3(9.53777e-05 0.000162302 0.00022875);
    }
    heatsource2
    {
        Cmu             0.09;
        kappa           0.41;
        E               9.8;
        type            epsilonWallFunction;
        value           nonuniform List<scalar> 4(0.000672986 0.000166131 0.000166131 0.000777649);
    }
    Table_master
    {
        Cmu             0.09;
        kappa           0.41;
        E               9.8;
        type            epsilonWallFunction;
        value           nonuniform List<scalar> 9(0.000244074 0.000166463 0.000117625 8.60898e-05 6.50727e-05 5.06231e-05 4.04238e-05 3.31171e-05 2.79313e-05);
    }
    Table_slave
    {
        Cmu             0.09;
        kappa           0.41;
        E               9.8;
        type            epsilonWallFunction;
        value           nonuniform List<scalar> 9(0.000349977 0.000263115 0.000210654 0.000175354 0.000148235 0.00012612 0.000106958 8.90517e-05 7.09998e-05);
    }
    inlet
    {
        type            turbulentMixingLengthDissipationRateInlet;
        mixingLength    0.01;
        phi             phi;
        k               k;
        value           uniform 0.000101881;
    }
    outlet
    {
        type            zeroGradient;
    }
}


// ************************************************************************* //
