/*--------------------------------*- C++ -*----------------------------------*=========                 |
  \      /  F ield         | OpenFOAM: The Open Source CFD Toolbox
   \    /   O peration     | Website:  https://openfoam.org
    \  /    A nd           | Version:  6
     \/     M anipulation  |
\*---------------------------------------------------------------------------*/
FoamFile
{
    version     2.0;
    format      ascii;
    class       volScalarField;
    location    "700";
    object      PMV;
}
// * * * * * * * * * * * * * * * * * * * * * * * * * * * * * * * * * * * * * //

dimensions      [0 0 0 0 0 0 0];

internalField   nonuniform List<scalar> 
459
(
1.618034415833319
1.3992860661113593
1.3724809720607054
1.3491553040850137
1.334226069420784
1.3252531686913307
1.324055724590742
1.3293896251442898
1.3411898260967159
1.3610960198204058
1.390102555333076
1.4302933874829802
1.4832612375940981
1.5046753028976063
1.510885687571068
1.5767933449685054
1.5643781082126593
1.5600816675136568
1.5624693792680338
1.5653331679442974
1.5681983058808415
1.5683634556473371
1.563515408519684
1.5625095442279406
1.563667633141649
1.5649759266919936
1.5667296156607098
1.569509620022281
1.572746246238861
1.5779121397069984
1.5877117135508663
1.5968461994440122
1.6011428224821196
1.613554439866805
1.577045164928156
1.4202694932493403
1.4120060686473241
1.390792059056756
1.3785716260299268
1.3715809169418876
1.3707316774263758
1.3735317532237632
1.3798231505976803
1.3897524700994823
1.4078828583841203
1.4352898737060016
1.4746957715306437
1.4965536496102074
1.49798691360752
1.4970314057464051
1.4946426103996029
1.5416707659588844
1.5548285526392527
1.551963131560586
1.5543509866422982
1.5511707167407098
1.5465846680710427
1.5447560736892503
1.5456127416872996
1.5467143760646924
1.547480483211201
1.5475965116935673
1.5482703398606235
1.5491066497506605
1.5506317721028458
1.5531498208157979
1.5613591753645157
1.5787032765736744
1.5849103583463644
1.5774312196883182
1.6174761632249521
1.4226602292882262
1.4483067671753236
1.4386971156865915
1.4362224334964713
1.436250427559259
1.4386240502759486
1.4392576791530718
1.4342780548513416
1.4276775301233962
1.4260040774743115
1.435083328198694
1.457878088663388
1.4936870820178665
1.4960758920057573
1.49798691360752
1.49798691360752
1.451892341576712
1.4925956092344244
1.5047298232288437
1.5144666319775546
1.525103295089711
1.5327706997904524
1.5356226554411383
1.5445029536265968
1.5508313803183558
1.5537386635641444
1.5550037589748895
1.5556646473144502
1.555753130181644
1.554909362791469
1.5506158033947415
1.5530368112862096
1.5709189294578163
1.562924332247903
1.5146283223700343
1.6927147600816648
1.4275232320744378
1.4762899471340312
1.4879361279572363
1.5063666593345324
1.5228564587509998
1.5352421941528778
1.5268482850586316
1.4968328140052796
1.4599391917477664
1.4315562658645067
1.4197808808415093
1.4289006109929623
1.4550890720378618
1.4884539419180631
1.5008534017816324
1.4778741829586257
1.4375001033646218
1.4412351022432233
1.470501100822347
1.497732852903948
1.5207290388273798
1.5415471176843598
1.5576536795246143
1.5642189878498016
1.5633686500508526
1.5635527844332995
1.5646786910643813
1.567111833494575
1.5711088363247256
1.5785194269258875
1.5909522463283792
1.6143046407110095
1.6059837270728152
1.5891675887519123
1.5443047421631297
1.4702107194534078
1.7822673658060115
1.4475579720630563
1.5037685247947852
1.5351924418041418
1.5865615507619366
1.6442975046549209
1.6636648197219246
1.6039217467533025
1.529442351307269
1.4619147765612188
1.416265310342917
1.3952102810785247
1.3987873149292256
1.4214977833596107
1.4539566842749667
1.4796209800103812
1.4818914136986185
1.4780559359287913
1.4881706497918101
1.5131368769726694
1.5440642126641562
1.5721772246292989
1.5971796216680074
1.6162340920246492
1.6273966459105982
1.6322100528069
1.633434649049503
1.6342187312499084
1.6338315921292854
1.6323147719936466
1.6321227451584739
1.6330295734768796
1.6342644119630505
1.6188286116061759
1.590014155479721
1.5278534462907702
1.519359925312585
1.6541217113486761
1.6430672808082711
1.4772537667160917
1.8717509843037328
1.4899256415912043
1.5568486257635834
1.5899517932111256
1.6617562652055347
1.6927660038064338
1.6634954259137076
1.581520823745248
1.502073781342708
1.4324597623962243
1.3842232033130024
1.3644693117404085
1.3720472768174232
1.4025778193145326
1.445118356266952
1.486550862592194
1.5153654019237512
1.535042039979581
1.5587376327101623
1.589597724825478
1.6092582548092915
1.625010175035753
1.6383737764321589
1.6488726470655584
1.657939055171755
1.6650962134067733
1.6703444931400127
1.67416126104177
1.6755925134038165
1.6746383473263993
1.671298698023545
1.666050465259585
1.6584162137641845
1.6314048025720638
1.5947025556327248
1.5297725202468933
1.5256804389279333
1.5421599181403722
1.5414184883018476
1.5549726661122125
1.9623776612312316
1.5860095812922772
1.710015291950575
1.6869532968352798
1.6842770283660733
1.6512235626480054
1.592009738670296
1.5145493997259125
1.4346495931121732
1.3689488376735186
1.3316170444895497
1.3277349510373762
1.35467852626751
1.4044056286481015
1.4678910580295508
1.5326490744412065
1.5648556389358943
1.5882525079846348
1.6092582548092915
1.6288285049101332
1.645532204005309
1.6598476769781214
1.670821596655019
1.6794090908459194
1.6865647958883263
1.69133498931752
1.6946739916943452
1.6965819435346383
1.696104958961635
1.6937200022476875
1.6879958772863635
1.680363213405061
1.671298698023545
1.658893370264062
1.616768168368013
1.5569155763112
1.5327072578803156
1.5214322776458538
1.4955616692586935
1.5814105360803783
2.0954620769551315
1.909338877148094
1.865389163475621
1.7652834256465584
1.7024557745987763
1.6138806044144358
1.5047829038770877
1.3967189898756238
1.3121532306446035
1.2655074739441468
1.2621958018957213
1.298112408757112
1.363780413033736
1.4486795716454828
1.535724623348992
1.5753608777742412
1.60734879005863
1.632646708853466
1.6522129895942692
1.6679589434414805
1.681317327209699
1.691811996387885
1.6999207720972853
1.705644218219453
1.7099365853611166
1.7123211525664468
1.7132749631243864
1.7127980590136438
1.710890419228192
1.707551960077232
1.7023055813780819
1.6941969980964258
1.6856107305377
1.6746383473263993
1.6627105466858614
1.6498270409339333
1.631632276459655
1.6200560607962768
1.5578497407086827
1.4693190172923338
2.294042333220231
2.1632091833584153
1.9990984363241404
1.816683747939077
1.5909996154229227
1.368995867299316
1.2016453747783609
1.106874894089108
1.0851659212252829
1.1264739943379019
1.2140128860742994
1.3307024207888827
1.4624864534004023
1.5319035253779907
1.5911171373135942
1.632169440281954
1.657939055171755
1.6765466708113217
1.6908579800093624
1.7018286240889011
1.710890419228192
1.7137040616032082
1.7133331511061056
1.711932634288065
1.70958407110565
1.7062094230336102
1.7013426935649796
1.6942296953712601
1.6860071166093002
1.6756961931867809
1.6638845880675839
1.6508693102307757
1.638374889577461
1.6232934233874476
1.6063021567271825
1.5921932865085136
1.582361326200777
1.5771166001181973
1.566618070513843
1.5365375290562722
-2.9613326042300416
-1.8806469802573078
-1.1558611474448641
-0.3885440496148129
0.18280017661949427
0.6217797733778183
0.9786205298769994
1.224997236070907
1.3899803068104952
1.5061084911711524
1.5758383685963069
1.618472599849945
1.6384553089341183
1.6558067891144486
1.6687482235728224
1.6780525700307656
1.6844481569736307
1.6880855642444614
1.6897485124176939
1.6892588302125726
1.6873163774108229
1.6843204048550955
1.6805762838857543
1.6754281823093409
1.6702771202593887
1.664262882981261
1.6581363563509341
1.6527464465021213
1.6484938481051923
1.6447675354200895
1.642461434959735
1.6407299626970306
1.6396150080825165
1.6414301556555428
1.651862667283974
1.6881578690913748
1.7634008901000942
1.603905293366434
-2.4588159953553492
-0.9884039915855832
0.058479786962012434
0.5924176014351356
0.9034667570582441
1.1049962328777865
1.25680718621033
1.3745169073467491
1.4648377660260083
1.5306248656091501
1.5752602910045634
1.6069599099719103
1.629189640963641
1.645593695555202
1.6566139192958218
1.6640877465735473
1.6690166485986362
1.672062671498596
1.6739739487639105
1.6744780633747414
1.6743187235011678
1.6734025919215278
1.6721790579303322
1.6706399263358174
1.668835733041381
1.6664048086827807
1.664582972571369
1.6638287245329413
1.6637488734164152
1.6667728614201192
1.6737985591237559
1.6846971170851046
1.6964023545896278
1.7062179825584887
1.7174462590526178
1.7565235842744
1.692138509221721
1.6423851210221916
-0.8406685112590226
-0.9773725045472327
-0.8586920375491853
0.388922561456315
0.8991437629603773
1.111003277136525
1.2410134019033867
1.3412761235569453
1.4219857356920675
1.4876590904273446
1.540197544899667
1.5805942251776444
1.6094853391132609
1.6295189808096346
1.6426602069209337
1.6501358636497208
1.6540097766167214
1.6554070423580427
1.6554170343923902
1.6540725591600964
1.6532708003690384
1.652210338076909
1.651631134212557
1.6514615276026339
1.6511750449487805
1.6518006283059627
1.6524403644761225
1.6543353748778775
1.6568683528338746
1.6615072589064277
1.6684288608604958
1.6804153108078566
1.7019531661837322
1.740915643119589
1.7666728917459653
1.7728688176651957
1.7385531281652284
1.6962820988305967
1.655231358260752
1.661912296899975
)
;

boundaryField
{
    ".*"
    {
        type            zeroGradient;
    }
}


// ************************************************************************* //
