/*--------------------------------*- C++ -*----------------------------------*\
  =========                 |
  \\      /  F ield         | OpenFOAM: The Open Source CFD Toolbox
   \\    /   O peration     | Website:  https://openfoam.org
    \\  /    A nd           | Version:  6
     \\/     M anipulation  |
\*---------------------------------------------------------------------------*/
FoamFile
{
    version     2.0;
    format      ascii;
    class       volScalarField;
    location    "100";
    object      nut;
}
// * * * * * * * * * * * * * * * * * * * * * * * * * * * * * * * * * * * * * //

dimensions      [0 2 -1 0 0 0 0];

internalField   nonuniform List<scalar> 
459
(
0.000714721
0.000741031
0.00068236
0.000707047
0.000734612
0.000761163
0.000786743
0.000812001
0.000838004
0.000863204
0.000883905
0.000898405
0.000904972
0.000901749
0.0008839
0.000308925
0.000340975
0.00031973
0.000291965
0.000258875
0.000227434
0.000203744
0.000190152
0.000190367
0.000210103
0.000249915
0.000303954
0.000365272
0.000429655
0.000496644
0.000565425
0.000542265
0.000463988
0.000347761
0.00119694
0.00228131
0.00179436
0.00236929
0.00260834
0.00283692
0.003068
0.00328339
0.00345578
0.0035817
0.00364971
0.00361918
0.00342151
0.00294219
0.00204854
0.000941431
0.000630126
0.00045469
0.00111988
0.000940798
0.000714626
0.00051529
0.000384148
0.000329671
0.000309314
0.000296415
0.00029526
0.000331479
0.00043335
0.000617556
0.000885811
0.00123872
0.00176795
0.00193593
0.00154162
0.000508086
0.00161896
0.0036754
0.00193164
0.00334619
0.00393008
0.00421122
0.00444167
0.00463646
0.00478805
0.00489923
0.00496111
0.00493194
0.00473687
0.00425897
0.00337264
0.00212957
0.000957781
0.000588718
0.00140072
0.00109214
0.000766038
0.000519461
0.000335412
0.000206718
0.000189378
0.000185031
0.000190212
0.0002088
0.00024686
0.000314009
0.00043141
0.000656358
0.00207908
0.00249877
0.0022429
0.000660704
0.00202065
0.0054244
0.0021987
0.00343997
0.00453944
0.00486993
0.00506946
0.00523499
0.00537823
0.00550247
0.00563373
0.00574671
0.00577259
0.00558776
0.00500946
0.00385255
0.00218616
0.000904196
0.00174234
0.00198257
0.00161599
0.00130892
0.00107748
0.000889608
0.000730658
0.00075131
0.000776742
0.00080609
0.000838576
0.000872965
0.000907958
0.000943455
0.000995971
0.00230898
0.00288914
0.00270963
0.000846736
0.00239779
0.00734923
0.00302377
0.00311552
0.00455394
0.00500598
0.00519639
0.00533435
0.00545838
0.00558695
0.00580248
0.00610908
0.00646698
0.00679759
0.00698768
0.00692079
0.00652719
0.00581024
0.00504036
0.00453933
0.00423125
0.00406274
0.00394659
0.00380806
0.0036769
0.00362763
0.0036269
0.00366909
0.00373998
0.00381393
0.00385748
0.00384104
0.00376518
0.0036719
0.00349009
0.00334359
0.00248886
0.0011048
0.000974975
0.000841451
0.00275581
0.00913459
0.00476589
0.00315132
0.00394039
0.00456443
0.00488455
0.00506785
0.00516417
0.00523935
0.00546806
0.00585304
0.00638379
0.00700772
0.00761205
0.00805004
0.00818162
0.00794207
0.00744571
0.00691159
0.00651038
0.00623028
0.00600208
0.0057783
0.00556373
0.00536887
0.0052051
0.00508103
0.00498751
0.00489013
0.00473712
0.00448865
0.00415543
0.003805
0.00357197
0.00353317
0.00356217
0.00328103
0.00251827
0.000971371
0.00307998
0.010431
0.0074713
0.00467571
0.00362304
0.00374956
0.00422725
0.0046247
0.00476706
0.00482163
0.00498447
0.0052787
0.00574872
0.00640782
0.00717643
0.00788936
0.00836427
0.00849436
0.00832226
0.0080064
0.00769118
0.00741799
0.00717441
0.00694236
0.00671109
0.00647827
0.0062505
0.00603792
0.00584231
0.00563391
0.00534831
0.00492946
0.00440331
0.00388971
0.00350635
0.00324925
0.00299801
0.00262042
0.00205395
0.000958155
0.0031369
0.0100865
0.0085135
0.00722192
0.00558791
0.00463472
0.00442128
0.00455745
0.00465253
0.00466995
0.00471429
0.00483447
0.00507864
0.00550155
0.00612288
0.00686079
0.00753241
0.00796618
0.00811578
0.00806228
0.00791798
0.00774739
0.00757273
0.00739806
0.00722397
0.00705574
0.0069028
0.00677063
0.00665435
0.00651584
0.00628224
0.00586856
0.00526471
0.0045788
0.00394189
0.00337827
0.00285341
0.00241232
0.00206311
0.00128027
0.00302788
0.00355749
0.00538187
0.00589375
0.00567893
0.0052372
0.00487361
0.00465008
0.00451666
0.0044526
0.00444882
0.00450149
0.00462355
0.00484347
0.00519576
0.00568646
0.00624791
0.00675372
0.00710515
0.00728841
0.00734507
0.00732233
0.00725589
0.0071681
0.00707371
0.00698768
0.00693065
0.00692723
0.00699226
0.00710501
0.00719518
0.00717565
0.00702603
0.00678095
0.00645329
0.00601357
0.00534341
0.00449828
0.00406523
0.00152772
0.00945068
0.0109237
0.00763452
0.00636704
0.00564836
0.00518641
0.0048761
0.00466324
0.00453301
0.00448069
0.00450219
0.00459648
0.00476718
0.00501797
0.00533577
0.00568116
0.00600092
0.00625331
0.00642008
0.00651001
0.00654683
0.00655021
0.00653454
0.00651174
0.00649563
0.00650594
0.0065683
0.00670413
0.00690845
0.0071314
0.00730052
0.00736681
0.00730428
0.00700452
0.00646344
0.00566465
0.00478314
0.00158474
0.00436747
0.0100978
0.00779087
0.00654961
0.00579185
0.00528612
0.00495307
0.00475821
0.00466275
0.00464951
0.00471955
0.00486443
0.00506691
0.0053021
0.00552636
0.00570473
0.00583543
0.00592729
0.00599164
0.00603712
0.00606837
0.00608769
0.00609627
0.00609519
0.00608695
0.00607726
0.00607653
0.00609918
0.00615799
0.0062529
0.00636206
0.00645311
0.00647997
0.00629132
0.00585452
0.00518263
0.0047406
0.00154679
0.00175943
0.00232395
0.00335566
0.00291851
0.0027341
0.00249336
0.00224083
0.00202256
0.00184009
0.00168843
0.00156931
0.00148043
0.00141662
0.00137499
0.0013529
0.00134674
0.0013538
0.00136841
0.00138256
0.00139236
0.00139714
0.00139777
0.00139552
0.00139173
0.00138741
0.00138329
0.00137992
0.00137777
0.0013774
0.00137948
0.00138451
0.00139197
0.00139908
0.00140025
0.00139045
0.00137946
0.00135768
0.00131912
0.00130429
0.00115473
)
;

boundaryField
{
    floor
    {
        type            nutkWallFunction;
        Cmu             0.09;
        kappa           0.41;
        E               9.8;
        value           nonuniform List<scalar> 
29
(
0.000106974
3.45752e-05
3.89137e-05
3.60566e-05
3.22788e-05
2.77089e-05
2.32902e-05
1.99032e-05
1.793e-05
1.79466e-05
2.07753e-05
2.63965e-05
3.3851e-05
4.2107e-05
5.05867e-05
5.9239e-05
6.79766e-05
6.50604e-05
5.50654e-05
3.97884e-05
3.97884e-05
6.07297e-05
7.98932e-05
0.000102538
0.000106974
3.45751e-05
5.38878e-05
7.09488e-05
0.0001094
)
;
    }
    ceiling
    {
        type            nutkWallFunction;
        Cmu             0.09;
        kappa           0.41;
        E               9.8;
        value           nonuniform List<scalar> 
43
(
0.000207182
0.000268632
0.000377098
0.000331629
0.00031225
0.000286723
0.000259667
0.00023602
0.000216042
0.000199275
0.000185991
0.000176007
0.000168798
0.000164076
0.000161563
0.00016086
0.000161664
0.000163324
0.000164932
0.000166043
0.000166585
0.000166656
0.000166401
0.000165971
0.00016548
0.000165013
0.000164629
0.000164385
0.000164344
0.000164582
0.000165155
0.000166006
0.000166817
0.000166956
0.000165844
0.000164597
0.00016212
0.000157722
0.000156019
0.000138813
0.000343168
0.000398012
0.000480197
)
;
    }
    sWall
    {
        type            nutkWallFunction;
        Cmu             0.09;
        kappa           0.41;
        E               9.8;
        value           uniform 0.000207229;
    }
    nWall
    {
        type            nutkWallFunction;
        Cmu             0.09;
        kappa           0.41;
        E               9.8;
        value           nonuniform List<scalar> 6(0.000101862 0.000117374 0.000115819 0.000187706 0.000183453 0.000138821);
    }
    sideWalls
    {
        type            empty;
    }
    glass1
    {
        type            nutkWallFunction;
        Cmu             0.09;
        kappa           0.41;
        E               9.8;
        value           nonuniform List<scalar> 9(8.64964e-05 0.00014381 0.000191745 0.000236086 0.000276853 0.000314925 0.000348953 0.000354897 0.000343532);
    }
    glass2
    {
        type            nutkWallFunction;
        Cmu             0.09;
        kappa           0.41;
        E               9.8;
        value           nonuniform List<scalar> 2(0.000153237 0.000181341);
    }
    sun
    {
        type            nutkWallFunction;
        Cmu             0.09;
        kappa           0.41;
        E               9.8;
        value           nonuniform List<scalar> 
14
(
8.65243e-05
8.97403e-05
8.25518e-05
8.55853e-05
8.89574e-05
9.21913e-05
9.52944e-05
9.83467e-05
0.000101478
0.000104501
0.000106976
0.000108706
0.000109488
0.000109104
)
;
    }
    heatsource1
    {
        type            nutkWallFunction;
        Cmu             0.09;
        kappa           0.41;
        E               9.8;
        value           nonuniform List<scalar> 3(0.000132938 0.000117746 0.000101861);
    }
    heatsource2
    {
        type            nutkWallFunction;
        Cmu             0.09;
        kappa           0.41;
        E               9.8;
        value           nonuniform List<scalar> 4(0.000113819 7.60899e-05 7.60899e-05 0.000115756);
    }
    Table_master
    {
        type            nutkWallFunction;
        Cmu             0.09;
        kappa           0.41;
        E               9.8;
        value           nonuniform List<scalar> 9(2.03329e-05 1.78243e-05 1.71857e-05 1.79311e-05 2.06013e-05 2.59805e-05 3.52205e-05 5.08003e-05 7.93003e-05);
    }
    Table_slave
    {
        type            nutkWallFunction;
        Cmu             0.09;
        kappa           0.41;
        E               9.8;
        value           nonuniform List<scalar> 9(8.8475e-05 9.0994e-05 9.40859e-05 9.76397e-05 0.000101556 0.000105683 0.000109863 0.000114082 0.000120289);
    }
    inlet
    {
        type            calculated;
        value           uniform 3.3541e-05;
    }
    outlet
    {
        type            calculated;
        value           nonuniform List<scalar> 2(0.00175943 0.00232395);
    }
}


// ************************************************************************* //
