/*--------------------------------*- C++ -*----------------------------------*\
  =========                 |
  \\      /  F ield         | OpenFOAM: The Open Source CFD Toolbox
   \\    /   O peration     | Website:  https://openfoam.org
    \\  /    A nd           | Version:  6
     \\/     M anipulation  |
\*---------------------------------------------------------------------------*/
FoamFile
{
    version     2.0;
    format      ascii;
    class       volScalarField;
    location    "2800";
    object      epsilon;
}
// * * * * * * * * * * * * * * * * * * * * * * * * * * * * * * * * * * * * * //

dimensions      [0 2 -3 0 0 0 0];

internalField   nonuniform List<scalar> 
459
(
0.000522899
0.000687264
0.000728361
0.000841889
0.000958548
0.0010788
0.00120856
0.00133574
0.00142545
0.00145601
0.00141146
0.00128866
0.00109954
0.000875534
0.000660874
4.83545e-05
8.52001e-05
0.000121415
0.000120782
0.00010926
9.48541e-05
7.82763e-05
6.38063e-05
5.23275e-05
4.33764e-05
3.63627e-05
3.08082e-05
2.63731e-05
2.27755e-05
1.97669e-05
1.71334e-05
1.4674e-05
1.32624e-05
1.02016e-05
0.00131718
0.00186068
0.000650861
0.000633395
0.000669496
0.000727072
0.000809737
0.000910332
0.000998621
0.00104685
0.00103605
0.000962987
0.000837491
0.000687157
0.000572328
0.000717288
0.000143081
5.78406e-05
0.000137087
0.000146485
0.00013396
0.000114414
9.60004e-05
8.66658e-05
7.01386e-05
5.55422e-05
4.39957e-05
3.51024e-05
2.8281e-05
2.30495e-05
1.90426e-05
1.60884e-05
1.4288e-05
1.35386e-05
3.50532e-05
2.37671e-05
0.0023839
0.00448792
0.000816228
0.000614027
0.000651896
0.000743788
0.000875093
0.001027
0.00115325
0.00121958
0.00121166
0.00113428
0.000999644
0.000841027
0.000696537
0.000629692
0.000777141
0.00041758
0.00030636
0.000234172
0.000182373
0.000144343
0.000121866
0.00022407
0.000153875
0.000109445
8.05792e-05
6.12319e-05
4.78631e-05
3.83856e-05
3.15623e-05
2.66827e-05
2.02458e-05
1.7064e-05
6.68172e-05
3.78206e-05
0.00382616
0.00920682
0.0013066
0.00064395
0.000662758
0.000800286
0.00101317
0.00123819
0.00139358
0.00145687
0.00143081
0.00133008
0.00116313
0.000973456
0.000803496
0.000690013
0.000671843
0.00127439
0.000724688
0.00043801
0.000294306
0.000212502
0.000161936
0.000138637
0.000318768
0.00024053
0.00019319
0.000161341
0.000136877
0.00011685
9.94946e-05
8.32413e-05
6.67773e-05
3.92251e-05
2.61832e-05
0.000114621
5.12252e-05
0.00578859
0.0162397
0.00259251
0.000821162
0.000741146
0.000945163
0.00132989
0.00162347
0.00176488
0.00178691
0.001717
0.00156896
0.00135656
0.00111136
0.000872806
0.000675298
0.00053957
0.00048507
0.000395761
0.000312328
0.00024489
0.000192897
0.000154042
0.000128408
0.000123864
0.000115012
0.000106152
9.73037e-05
8.79777e-05
7.83483e-05
6.8973e-05
6.01986e-05
5.21323e-05
4.12079e-05
3.17942e-05
8.06603e-05
5.75588e-05
9.26697e-05
0.000158084
0.000221981
0.00848848
0.0239344
0.00579028
0.00169515
0.00126916
0.00162771
0.00213489
0.00232432
0.0023395
0.00226357
0.00212034
0.00190321
0.00161558
0.00128694
0.00096505
0.000696679
0.000508413
0.000398458
0.000327779
0.000269748
0.000218381
0.000175975
0.000143822
0.000122525
0.000112391
0.000107992
0.000105096
0.000101353
9.5442e-05
8.63839e-05
7.49289e-05
6.35085e-05
5.32499e-05
4.41348e-05
3.87818e-05
5.76719e-05
5.92812e-05
7.15052e-05
0.000295361
0.000256116
0.0114946
0.0284605
0.0116798
0.00538144
0.00402166
0.00401255
0.00379716
0.00350213
0.00321541
0.00295369
0.00268084
0.00234907
0.00194435
0.00149869
0.00107245
0.000728369
0.000496809
0.000364205
0.000288402
0.000234117
0.000189452
0.000154792
0.000130996
0.000117793
0.000113835
0.000115402
0.00011868
0.000121657
0.000122875
0.00012027
0.000109452
9.6127e-05
8.32152e-05
7.22438e-05
6.85092e-05
8.02126e-05
0.000104891
0.000177694
0.000417681
0.000391873
0.0120744
0.0297931
0.0171808
0.0122901
0.00966164
0.00753044
0.00600341
0.00499045
0.00433236
0.00386089
0.00342278
0.00291393
0.00232093
0.00169944
0.00113133
0.000703959
0.000442577
0.000304384
0.000233428
0.000188002
0.000154825
0.000132464
0.000120084
0.000116301
0.000119316
0.000126967
0.000137655
0.000150961
0.000166954
0.000185378
0.000204633
0.00021291
0.000223554
0.000247328
0.000297428
0.000462194
0.000899707
0.0018218
0.00537859
0.00144171
0.0110787
0.0181513
0.0145833
0.0111731
0.00878354
0.00728751
0.00639319
0.00585877
0.00546694
0.00502142
0.00438694
0.00353251
0.0025891
0.00170229
0.00096449
0.000519945
0.00032141
0.000227363
0.000176873
0.000145263
0.000125002
0.000113793
0.000110069
0.000112363
0.000119459
0.000130631
0.000145934
0.000166319
0.000193544
0.000230199
0.000279821
0.000347746
0.000441992
0.000587324
0.000800852
0.00108842
0.00141103
0.00167921
0.00187345
0.00112411
0.00372385
0.00657147
0.00842893
0.00891595
0.00890277
0.00843219
0.00743841
0.006035
0.00443285
0.00278104
0.00167297
0.000968861
0.00055024
0.000333175
0.000228829
0.000175759
0.000145469
0.000126295
0.000114248
0.00010793
0.000106363
0.000108643
0.000114219
0.000122991
0.00013535
0.000152275
0.000175502
0.000207867
0.000253843
0.000319408
0.000411678
0.00053978
0.000705971
0.000889897
0.00103471
0.00106802
0.000936531
0.000587987
0.00371714
0.0084945
0.00848362
0.0070295
0.00608045
0.00509301
0.00401354
0.00295085
0.00200637
0.00125132
0.000760848
0.000472098
0.000314185
0.000232851
0.000190741
0.00016665
0.000150699
0.000138971
0.000130101
0.000123823
0.000120462
0.000120049
0.000122735
0.000128937
0.00013937
0.000155112
0.000177743
0.000209589
0.00025398
0.000315537
0.000400447
0.000514828
0.000658953
0.000822984
0.000944941
0.00105183
0.000804761
0.000610091
0.00267212
0.00318897
0.00360039
0.00451849
0.00400553
0.00356393
0.00322459
0.00277137
0.00222956
0.00167855
0.00118114
0.000788358
0.000521106
0.000356903
0.000259357
0.000200286
0.000163083
0.000139014
0.000123679
0.000114766
0.000110887
0.000111055
0.000114083
0.000119692
0.000127858
0.000138782
0.000152884
0.000170879
0.000193963
0.000223841
0.000261496
0.000309041
0.000369111
0.000445149
0.00054083
0.000687651
0.0007341
0.000681113
0.000552828
0.00043406
)
;

boundaryField
{
    floor
    {
        Cmu             0.09;
        kappa           0.41;
        E               9.8;
        type            epsilonWallFunction;
        value           nonuniform List<scalar> 
29
(
0.000660874
4.83545e-05
8.52001e-05
0.000121415
0.000120782
0.00010926
9.48541e-05
7.82763e-05
6.38063e-05
5.23275e-05
4.33764e-05
3.63627e-05
3.08082e-05
2.63731e-05
2.27755e-05
1.97669e-05
1.71334e-05
1.4674e-05
1.32624e-05
1.02016e-05
1.02016e-05
2.37671e-05
3.78206e-05
5.12252e-05
0.000660874
4.83545e-05
5.78406e-05
0.00041758
0.00127439
)
;
    }
    ceiling
    {
        Cmu             0.09;
        kappa           0.41;
        E               9.8;
        type            epsilonWallFunction;
        value           nonuniform List<scalar> 
43
(
0.00267212
0.00318897
0.00360039
0.00451849
0.00400553
0.00356393
0.00322459
0.00277137
0.00222956
0.00167855
0.00118114
0.000788358
0.000521106
0.000356903
0.000259357
0.000200286
0.000163083
0.000139014
0.000123679
0.000114766
0.000110887
0.000111055
0.000114083
0.000119692
0.000127858
0.000138782
0.000152884
0.000170879
0.000193963
0.000223841
0.000261496
0.000309041
0.000369111
0.000445149
0.00054083
0.000687651
0.0007341
0.000681113
0.000552828
0.00043406
0.0110787
0.0181513
0.00371714
)
;
    }
    sWall
    {
        Cmu             0.09;
        kappa           0.41;
        E               9.8;
        type            epsilonWallFunction;
        value           uniform 0.00267212;
    }
    nWall
    {
        Cmu             0.09;
        kappa           0.41;
        E               9.8;
        type            epsilonWallFunction;
        value           nonuniform List<scalar> 6(0.000221981 0.000256116 0.000391873 0.000587987 0.000610091 0.00043406);
    }
    sideWalls
    {
        type            empty;
    }
    glass1
    {
        Cmu             0.09;
        kappa           0.41;
        E               9.8;
        type            epsilonWallFunction;
        value           nonuniform List<scalar> 9(0.000522899 0.00131718 0.0023839 0.00382616 0.00578859 0.00848848 0.0114946 0.0120744 0.0110787);
    }
    glass2
    {
        Cmu             0.09;
        kappa           0.41;
        E               9.8;
        type            epsilonWallFunction;
        value           nonuniform List<scalar> 2(0.00144171 0.00112411);
    }
    sun
    {
        Cmu             0.09;
        kappa           0.41;
        E               9.8;
        type            epsilonWallFunction;
        value           nonuniform List<scalar> 
14
(
0.000522899
0.000687264
0.000728361
0.000841889
0.000958548
0.0010788
0.00120856
0.00133574
0.00142545
0.00145601
0.00141146
0.00128866
0.00109954
0.000875534
)
;
    }
    heatsource1
    {
        Cmu             0.09;
        kappa           0.41;
        E               9.8;
        type            epsilonWallFunction;
        value           nonuniform List<scalar> 3(9.26697e-05 0.000158084 0.000221981);
    }
    heatsource2
    {
        Cmu             0.09;
        kappa           0.41;
        E               9.8;
        type            epsilonWallFunction;
        value           nonuniform List<scalar> 4(0.000717288 0.000143081 0.000143081 0.000777141);
    }
    Table_master
    {
        Cmu             0.09;
        kappa           0.41;
        E               9.8;
        type            epsilonWallFunction;
        value           nonuniform List<scalar> 9(0.00022407 0.000153875 0.000109445 8.05792e-05 6.12319e-05 4.78631e-05 3.83856e-05 3.15623e-05 2.66827e-05);
    }
    Table_slave
    {
        Cmu             0.09;
        kappa           0.41;
        E               9.8;
        type            epsilonWallFunction;
        value           nonuniform List<scalar> 9(0.000318768 0.00024053 0.00019319 0.000161341 0.000136877 0.00011685 9.94946e-05 8.32413e-05 6.67773e-05);
    }
    inlet
    {
        type            turbulentMixingLengthDissipationRateInlet;
        mixingLength    0.01;
        phi             phi;
        k               k;
        value           uniform 0.000101881;
    }
    outlet
    {
        type            zeroGradient;
    }
}


// ************************************************************************* //
