/*--------------------------------*- C++ -*----------------------------------*\
  =========                 |
  \\      /  F ield         | OpenFOAM: The Open Source CFD Toolbox
   \\    /   O peration     | Website:  https://openfoam.org
    \\  /    A nd           | Version:  6
     \\/     M anipulation  |
\*---------------------------------------------------------------------------*/
FoamFile
{
    version     2.0;
    format      ascii;
    class       volScalarField;
    location    "2700";
    object      alphat;
}
// * * * * * * * * * * * * * * * * * * * * * * * * * * * * * * * * * * * * * //

dimensions      [1 -1 -1 0 0 0 0];

internalField   nonuniform List<scalar> 
459
(
0.0013254
0.00145318
0.00148166
0.00155498
0.00162375
0.00168903
0.00175424
0.00181377
0.00185353
0.00186673
0.00184753
0.00179233
0.00169994
0.00157554
0.00143436
0.000599808
0.000724494
0.000815347
0.000813958
0.000787198
0.000750948
0.000704357
0.000657951
0.000615842
0.000578492
0.000545446
0.000516112
0.000490041
0.00046665
0.000445114
0.000424386
0.000403011
0.000389635
0.000356971
0.00180223
0.00452653
0.00438062
0.00511495
0.00583906
0.00655138
0.00715286
0.00762708
0.0080446
0.00837216
0.00856781
0.0085884
0.00836861
0.00774009
0.00601347
0.00147417
0.000861909
0.000636644
0.0013407
0.00187224
0.00226242
0.00247306
0.0024647
0.00196268
0.00168852
0.0014941
0.00134557
0.00122783
0.00113212
0.00104959
0.000972475
0.000897303
0.000830252
0.000770591
0.000916079
0.000473211
0.00219483
0.00618606
0.00547039
0.00684425
0.00754226
0.00806236
0.00846481
0.00880702
0.00916829
0.00953157
0.00985014
0.0100701
0.0101294
0.00992137
0.00914321
0.00692026
0.00151419
0.00123051
0.00180186
0.00233784
0.00282911
0.00316627
0.00308067
0.00100009
0.000882326
0.00078759
0.000711165
0.000648958
0.000597794
0.000555392
0.000520304
0.000491965
0.000531808
0.000615786
0.00103899
0.000552465
0.00256801
0.00786092
0.00553057
0.00724971
0.00785118
0.00807617
0.00824221
0.00845371
0.00876697
0.0091612
0.00957396
0.0099388
0.0101837
0.0102183
0.00997773
0.00910828
0.00618822
0.00178538
0.00222378
0.00289235
0.00355668
0.00408983
0.00441184
0.00412201
0.00112459
0.00102378
0.000951606
0.000896103
0.000848268
0.00080467
0.000762651
0.000718605
0.000667688
0.00062594
0.000645258
0.00121758
0.000611218
0.00294609
0.00998528
0.00611727
0.00704444
0.00779728
0.00787339
0.00784882
0.00800662
0.00829425
0.00871417
0.00918348
0.0096126
0.00989577
0.00997088
0.00983269
0.00944292
0.00857393
0.00712678
0.00663021
0.00647926
0.00643491
0.00639777
0.00631112
0.00603575
0.00505483
0.00458432
0.00430738
0.00409069
0.00386393
0.00353889
0.0031152
0.00261448
0.00206889
0.00152991
0.00113092
0.00119201
0.000800781
0.000744597
0.000889547
0.000996079
0.00334505
0.0122874
0.00836302
0.00718414
0.00773325
0.00785621
0.00780286
0.0079031
0.00812986
0.00851891
0.00902037
0.00949958
0.00980619
0.00984974
0.00964544
0.00929799
0.00892039
0.00857173
0.00837919
0.00821061
0.00799321
0.00773286
0.0074387
0.00708699
0.00661071
0.00620031
0.00584827
0.00552094
0.00519586
0.00484173
0.00439553
0.00384041
0.00318059
0.00246205
0.00183818
0.00136868
0.00107182
0.000944882
0.0013675
0.00104483
0.00369866
0.0138446
0.011498
0.00922878
0.00884372
0.00851375
0.00817486
0.00804346
0.00819312
0.00861047
0.00918185
0.00971606
0.0100225
0.00999809
0.00968519
0.00927709
0.00901926
0.00898878
0.00899978
0.00885161
0.00852615
0.00809098
0.00759793
0.00707859
0.00656542
0.00611882
0.00573201
0.00538587
0.0050748
0.00480223
0.00456359
0.00418236
0.0036501
0.00301504
0.00242216
0.00189014
0.00154132
0.00147267
0.00154491
0.00120388
0.00375686
0.0120569
0.0109003
0.0100746
0.00928295
0.00849891
0.00802348
0.00797819
0.00834469
0.00900024
0.00973642
0.0103062
0.0105177
0.010314
0.00981673
0.00932802
0.00913937
0.00918631
0.00906854
0.00866738
0.00807354
0.00738751
0.00669495
0.00606957
0.00555538
0.00515148
0.00482815
0.00456662
0.00436472
0.00422864
0.00416455
0.00412185
0.00380667
0.00338598
0.00303077
0.00288287
0.00308693
0.0037556
0.00472252
0.00185736
0.0036465
0.004303
0.00474244
0.00485543
0.00511495
0.00568377
0.00657704
0.00772978
0.0089882
0.010142
0.0109694
0.0112886
0.0110595
0.0104213
0.00969941
0.00926474
0.00899774
0.00869191
0.00817259
0.00744418
0.00661834
0.00581906
0.00514013
0.0046167
0.00423002
0.00393819
0.00370541
0.00351054
0.00334093
0.00318675
0.00303992
0.00290537
0.00279887
0.00273
0.00272129
0.0027574
0.00275444
0.00263808
0.00245104
0.0017085
0.00172988
0.00438962
0.00793025
0.0102182
0.0117189
0.0126306
0.013003
0.0129175
0.0124644
0.011741
0.0107228
0.00969322
0.00890878
0.00836147
0.00780913
0.0071272
0.00633877
0.00552768
0.00477989
0.00417426
0.00373052
0.0034173
0.00319296
0.00302543
0.00289568
0.00279445
0.00271841
0.0026687
0.00265075
0.00266167
0.00268853
0.00272797
0.00276698
0.00276906
0.00267918
0.0024784
0.00218094
0.00137674
0.00261826
0.00807209
0.011047
0.0118087
0.0120297
0.0118405
0.0112742
0.0104699
0.00956164
0.00867407
0.00783739
0.00713508
0.00655145
0.00596778
0.0053354
0.00469987
0.00411583
0.00362031
0.00322771
0.0029275
0.00271406
0.00256742
0.00247142
0.00241627
0.00239583
0.0024047
0.002436
0.00248431
0.00255809
0.00265181
0.00276104
0.00287708
0.00298067
0.00305449
0.00304174
0.00304465
0.00275344
0.00139383
0.00231595
0.00245718
0.00255865
0.00273854
0.00262255
0.00251902
0.00243437
0.00231304
0.00215019
0.00195527
0.00173859
0.00151906
0.00132308
0.00116619
0.00104844
0.000961913
0.000898262
0.00085174
0.000819237
0.000799101
0.000790016
0.000790408
0.000797508
0.000810339
0.000828329
0.000851244
0.000879119
0.000912308
0.000951634
0.000998158
0.00105122
0.0011114
0.00117917
0.00125513
0.00133926
0.00145087
0.00148277
0.00144616
0.00134899
0.00124435
)
;

boundaryField
{
    floor
    {
        type            compressible::alphatWallFunction;
        Prt             0.85;
        value           nonuniform List<scalar> 
29
(
0.000202096
8.43128e-05
0.000102757
0.000115952
0.000115752
0.000111884
0.000106619
9.98062e-05
9.29663e-05
8.67089e-05
8.11146e-05
7.61279e-05
7.16698e-05
6.7681e-05
6.40795e-05
6.07435e-05
5.75132e-05
5.4161e-05
5.20518e-05
4.68614e-05
4.68608e-05
6.50928e-05
7.71911e-05
8.60201e-05
0.000202094
8.43118e-05
8.9806e-05
0.000174317
0.00024894
)
;
    }
    ceiling
    {
        type            compressible::alphatWallFunction;
        Prt             0.85;
        value           nonuniform List<scalar> 
43
(
0.000317759
0.000335807
0.00034871
0.000371606
0.000357021
0.000343916
0.000333154
0.000317647
0.000296686
0.00027137
0.000242896
0.000213646
0.000187131
0.000165584
0.000149196
0.000137017
0.000127976
0.00012132
0.000116645
0.000113737
0.000112423
0.000112479
0.000113507
0.000115361
0.000117955
0.00012125
0.000125243
0.000129978
0.000135563
0.000142135
0.000149587
0.000157987
0.000167383
0.000177841
0.000189342
0.000204475
0.000208775
0.00020384
0.000190669
0.000176367
0.000484484
0.000564072
0.000356021
)
;
    }
    sWall
    {
        type            compressible::alphatWallFunction;
        Prt             0.85;
        value           uniform 0.000316487;
    }
    nWall
    {
        type            compressible::alphatWallFunction;
        Prt             0.85;
        value           nonuniform List<scalar> 6(0.000141493 0.000148336 0.000170427 0.000194093 0.00019641 0.00017602);
    }
    sideWalls
    {
        type            empty;
    }
    glass1
    {
        type            compressible::alphatWallFunction;
        Prt             0.85;
        value           nonuniform List<scalar> 9(0.000182568 0.000245542 0.000296154 0.000343459 0.000390716 0.000439951 0.000483137 0.000490349 0.000477198);
    }
    glass2
    {
        type            compressible::alphatWallFunction;
        Prt             0.85;
        value           nonuniform List<scalar> 2(0.000256456 0.000236995);
    }
    sun
    {
        type            compressible::alphatWallFunction;
        Prt             0.85;
        value           nonuniform List<scalar> 
14
(
0.000187327
0.000204642
0.00020848
0.000218326
0.000227513
0.000236194
0.00024483
0.000252682
0.000257912
0.000259645
0.000257122
0.000249855
0.000237638
0.000221073
)
;
    }
    heatsource1
    {
        type            compressible::alphatWallFunction;
        Prt             0.85;
        value           nonuniform List<scalar> 3(0.000105846 0.000126758 0.000141868);
    }
    heatsource2
    {
        type            compressible::alphatWallFunction;
        Prt             0.85;
        value           nonuniform List<scalar> 4(0.000207644 0.000122804 0.000122803 0.000213026);
    }
    Table_master
    {
        type            compressible::alphatWallFunction;
        Prt             0.85;
        value           nonuniform List<scalar> 9(0.000142429 0.000125723 0.000112093 0.000100954 9.17804e-05 8.41546e-05 7.77737e-05 7.24476e-05 6.81132e-05);
    }
    Table_slave
    {
        type            compressible::alphatWallFunction;
        Prt             0.85;
        value           nonuniform List<scalar> 9(0.000159847 0.000145765 0.000135584 0.000127694 0.000120847 0.000114567 0.000108476 0.000102047 9.45556e-05);
    }
    inlet
    {
        type            fixedValue;
        value           uniform 1.94e-05;
    }
    outlet
    {
        type            zeroGradient;
    }
}


// ************************************************************************* //
