// -*- C++ -*-
// File generated by PyFoam - sorry for the ugliness

FoamFile
{
 version 2.0;
 format ascii;
 class volVectorField;
 location "2700";
 object U;
}

dimensions [ 0 1 -1 0 0 0 0 ];

internalField nonuniform List<vector> 459
(
  (0.0332359 0.088267 0)
  (-0.171752 0.0265112 0)
  (-0.196998 0.017863 0)
  (-0.227721 0.011862 0)
  (-0.249311 0.0052989 0)
  (-0.260794 -0.0015665 0)
  (-0.260706 -0.00874039 0)
  (-0.248418 -0.0161798 0)
  (-0.224884 -0.023125 0)
  (-0.192193 -0.028472 0)
  (-0.153816 -0.0313938 0)
  (-0.113555 -0.0315997 0)
  (-0.0749999 -0.0294201 0)
  (-0.0431991 -0.0262508 0)
  (-0.0332412 -0.0238628 0)
  (-0.00319653 0.00875557 0)
  (-0.0282341 -0.0195814 0)
  (-0.00260985 -0.029633 0)
  (0.0218903 -0.022141 0)
  (0.0393291 -0.0149758 0)
  (0.0526072 -0.00960385 0)
  (0.060621 -0.00570763 0)
  (0.0646554 -0.00367115 0)
  (0.0664611 -0.00280059 0)
  (0.067373 -0.00238083 0)
  (0.0679359 -0.00210834 0)
  (0.068231 -0.00188684 0)
  (0.0681934 -0.00162167 0)
  (0.0676069 -0.00113198 0)
  (0.0658804 -2.08139e-05 0)
  (0.0617579 0.00226433 0)
  (0.0538794 0.00466124 0)
  (0.0466898 0.00663034 0)
  (-0.0142457 0.0229828 0)
  (0.20954 0.180343 0)
  (-0.158771 0.0697838 0)
  (-0.157483 0.0529999 0)
  (-0.188903 0.040347 0)
  (-0.210083 0.0261513 0)
  (-0.221662 0.0104784 0)
  (-0.222122 -0.00675667 0)
  (-0.210833 -0.0246279 0)
  (-0.189322 -0.0406633 0)
  (-0.160001 -0.0524263 0)
  (-0.126363 -0.0583845 0)
  (-0.0918708 -0.0582813 0)
  (-0.0596595 -0.0527132 0)
  (-0.0331178 -0.0432288 0)
  (-0.0164864 -0.0317194 0)
  (-0.00286445 -0.0137715 0)
  (-0.00353541 0.0170609 0)
  (0.0722171 0.036736 0)
  (0.0313085 -0.0207431 0)
  (0.0391995 -0.0341569 0)
  (0.0513227 -0.0295497 0)
  (0.0608444 -0.0206686 0)
  (0.0673718 -0.0123777 0)
  (0.0700776 -0.00515184 0)
  (0.0705105 -0.00113503 0)
  (0.0704074 0.000550469 0)
  (0.0704879 0.00131073 0)
  (0.070669 0.00177008 0)
  (0.0707973 0.00214978 0)
  (0.0708252 0.00263528 0)
  (0.0706986 0.00359124 0)
  (0.0698522 0.00597536 0)
  (0.0657009 0.0126035 0)
  (0.0552718 0.018114 0)
  (0.0505931 0.0217888 0)
  (-0.0553939 0.0495246 0)
  (0.370687 0.269337 0)
  (-0.173741 0.110523 0)
  (-0.117733 0.0852443 0)
  (-0.147606 0.0629244 0)
  (-0.166074 0.0396725 0)
  (-0.176292 0.0143551 0)
  (-0.175718 -0.0134219 0)
  (-0.163593 -0.0416779 0)
  (-0.142617 -0.0660576 0)
  (-0.11581 -0.0829087 0)
  (-0.0866819 -0.0904195 0)
  (-0.0579214 -0.0889234 0)
  (-0.0315562 -0.0795224 0)
  (-0.00966131 -0.0641083 0)
  (0.00676934 -0.0431423 0)
  (0.0180006 -0.0176 0)
  (0.0236944 0.0193679 0)
  (0.120663 -0.0369399 0)
  (0.0796339 -0.0447311 0)
  (0.0739018 -0.0427715 0)
  (0.0759697 -0.0353035 0)
  (0.0775903 -0.0257502 0)
  (0.0787121 -0.0174672 0)
  (0.0771027 -0.0138984 0)
  (0.0724675 -0.00972727 0)
  (0.0692111 -0.00745055 0)
  (0.0677704 -0.00613789 0)
  (0.0671768 -0.0052954 0)
  (0.0669 -0.0047062 0)
  (0.0669529 -0.00415863 0)
  (0.0678331 -0.00326357 0)
  (0.0708167 5.55883e-05 0)
  (0.0684594 0.0181591 0)
  (0.0537786 0.0307227 0)
  (0.0571695 0.0389564 0)
  (-0.0921839 0.076678 0)
  (0.515484 0.340669 0)
  (-0.206604 0.146464 0)
  (-0.0765233 0.112314 0)
  (-0.103779 0.0816608 0)
  (-0.116477 0.0515283 0)
  (-0.122383 0.0179516 0)
  (-0.117042 -0.0202889 0)
  (-0.101818 -0.0588491 0)
  (-0.0810554 -0.0902148 0)
  (-0.0579068 -0.110359 0)
  (-0.035314 -0.117992 0)
  (-0.0144428 -0.11469 0)
  (0.00439037 -0.101728 0)
  (0.020007 -0.0821002 0)
  (0.033629 -0.0579237 0)
  (0.048578 -0.0305989 0)
  (0.0712436 -0.000385668 0)
  (0.103866 0.0134702 0)
  (0.109807 -0.0290055 0)
  (0.0942477 -0.0388852 0)
  (0.0848452 -0.0364829 0)
  (0.0801929 -0.0308958 0)
  (0.0770316 -0.0234777 0)
  (0.0753957 -0.0144145 0)
  (0.0774455 -0.00857621 0)
  (0.0825968 -0.00656126 0)
  (0.08683 -0.00538735 0)
  (0.0895796 -0.00446461 0)
  (0.0910912 -0.0033546 0)
  (0.0907178 -0.00178619 0)
  (0.0874278 0.000443276 0)
  (0.0799722 0.00363731 0)
  (0.0653431 0.00840238 0)
  (0.0529729 0.029788 0)
  (0.0402632 0.0472443 0)
  (0.0606966 0.060403 0)
  (-0.135168 0.0999202 0)
  (0.639645 0.395776 0)
  (-0.247083 0.175686 0)
  (-0.0367664 0.127292 0)
  (-0.0579897 0.0917258 0)
  (-0.0621101 0.0574484 0)
  (-0.0596154 0.017244 0)
  (-0.0426394 -0.0311909 0)
  (-0.0232736 -0.0772039 0)
  (-0.00458053 -0.111336 0)
  (0.0119097 -0.130998 0)
  (0.0245612 -0.135918 0)
  (0.0345206 -0.129731 0)
  (0.0422088 -0.114821 0)
  (0.0485193 -0.0938883 0)
  (0.0546826 -0.069603 0)
  (0.0626145 -0.0451438 0)
  (0.0750237 -0.0265245 0)
  (0.0859166 -0.0254882 0)
  (0.0869696 -0.034191 0)
  (0.0798714 -0.0345798 0)
  (0.0711712 -0.0306029 0)
  (0.064423 -0.0255869 0)
  (0.0596316 -0.019928 0)
  (0.0570935 -0.0136746 0)
  (0.0573911 -0.00774051 0)
  (0.060111 -0.00488541 0)
  (0.0630746 -0.00371468 0)
  (0.0658146 -0.00263261 0)
  (0.0681746 -0.000602444 0)
  (0.069674 0.00283886 0)
  (0.0691001 0.00773125 0)
  (0.0659345 0.0142286 0)
  (0.0594841 0.0230644 0)
  (0.0518064 0.0394732 0)
  (0.0402157 0.0590677 0)
  (0.0683135 0.0804524 0)
  (-0.0349801 0.112428 0)
  (0.0474527 0.0269339 0)
  (-0.0690951 -0.0378404 0)
  (-0.286078 -0.0614061 0)
  (0.729005 0.441455 0)
  (-0.286299 0.19488 0)
  (-0.00690367 0.121522 0)
  (-0.00961537 0.0895861 0)
  (-0.000681909 0.0539326 0)
  (0.0199672 0.00463259 0)
  (0.049596 -0.0510232 0)
  (0.069288 -0.0950896 0)
  (0.0815152 -0.124543 0)
  (0.0870046 -0.139447 0)
  (0.0871585 -0.141213 0)
  (0.0837593 -0.132448 0)
  (0.0783224 -0.115974 0)
  (0.072443 -0.0947223 0)
  (0.0675688 -0.0714557 0)
  (0.0649687 -0.0492262 0)
  (0.0653643 -0.032126 0)
  (0.0656115 -0.025185 0)
  (0.0617529 -0.0251171 0)
  (0.0539931 -0.0248807 0)
  (0.0454349 -0.0226196 0)
  (0.0385003 -0.0194295 0)
  (0.0337086 -0.0158547 0)
  (0.0313233 -0.0120624 0)
  (0.0314363 -0.00884182 0)
  (0.0335546 -0.00759065 0)
  (0.0365736 -0.00726702 0)
  (0.0400419 -0.00651561 0)
  (0.0437237 -0.00427805 0)
  (0.0474396 0.000272491 0)
  (0.0502524 0.0071295 0)
  (0.0514419 0.015919 0)
  (0.0513434 0.0269757 0)
  (0.0515103 0.0422324 0)
  (0.0491443 0.0613118 0)
  (0.076477 0.0860667 0)
  (0.0487537 0.105183 0)
  (0.0974983 0.0697395 0)
  (0.122237 0.0453278 0)
  (-0.138477 -0.010034 0)
  (0.785912 0.483222 0)
  (-0.304132 0.179283 0)
  (0.0241292 0.0652503 0)
  (0.0579169 0.054927 0)
  (0.0842295 0.0287685 0)
  (0.128484 -0.0255654 0)
  (0.157052 -0.0738877 0)
  (0.170723 -0.108129 0)
  (0.171559 -0.12824 0)
  (0.162275 -0.135628 0)
  (0.146056 -0.132165 0)
  (0.126014 -0.120308 0)
  (0.10485 -0.102842 0)
  (0.0848065 -0.082432 0)
  (0.067472 -0.0612849 0)
  (0.0538227 -0.0418508 0)
  (0.0440748 -0.0270797 0)
  (0.0365801 -0.0193773 0)
  (0.0290366 -0.0171445 0)
  (0.0209224 -0.0165145 0)
  (0.013374 -0.0154236 0)
  (0.00747644 -0.0139737 0)
  (0.0035555 -0.0124504 0)
  (0.00174807 -0.0109938 0)
  (0.0020086 -0.0100811 0)
  (0.00384003 -0.0102183 0)
  (0.00654025 -0.0107054 0)
  (0.00984374 -0.0105703 0)
  (0.0137843 -0.00888214 0)
  (0.0184908 -0.00457874 0)
  (0.0252153 0.00324008 0)
  (0.0308917 0.0128932 0)
  (0.0364446 0.0240257 0)
  (0.0437857 0.0375392 0)
  (0.0511572 0.0530999 0)
  (0.0763161 0.0732383 0)
  (0.0886129 0.0805359 0)
  (0.125387 0.0523027 0)
  (0.167953 0.0428335 0)
  (-0.0320936 0.0967142 0)
  (0.893908 0.482605 0)
  (-0.0560401 0.157638 0)
  (0.119686 -0.0236695 0)
  (0.208352 -0.0599167 0)
  (0.254509 -0.0735553 0)
  (0.279277 -0.0902443 0)
  (0.287822 -0.105601 0)
  (0.279655 -0.115253 0)
  (0.257007 -0.118076 0)
  (0.224165 -0.114302 0)
  (0.185862 -0.104792 0)
  (0.146209 -0.0908019 0)
  (0.108502 -0.0741923 0)
  (0.0750523 -0.0567601 0)
  (0.047063 -0.0397169 0)
  (0.0253151 -0.0248364 0)
  (0.00987245 -0.0144585 0)
  (-0.000818127 -0.00955792 0)
  (-0.00877994 -0.00865204 0)
  (-0.0154806 -0.00901774 0)
  (-0.0210807 -0.00935062 0)
  (-0.0253659 -0.00956821 0)
  (-0.0282992 -0.00980334 0)
  (-0.0298975 -0.0101819 0)
  (-0.0303041 -0.0109 0)
  (-0.0299077 -0.0120187 0)
  (-0.02911 -0.0131739 0)
  (-0.0280107 -0.0138689 0)
  (-0.0264203 -0.0135938 0)
  (-0.0238911 -0.0117411 0)
  (-0.0192629 -0.00750266 0)
  (-0.0087232 -0.000211701 0)
  (-0.000395118 0.00853131 0)
  (0.0108513 0.0171298 0)
  (0.0224456 0.0248032 0)
  (0.0437366 0.033561 0)
  (0.0623048 0.0257574 0)
  (0.0811966 -0.00562456 0)
  (0.142778 0.0448992 0)
  (-0.455445 0.222106 0)
  (1.04625 0.42696 0)
  (0.495611 0.27874 0)
  (0.51478 0.17283 0)
  (0.54985 0.0944837 0)
  (0.529688 0.0404227 0)
  (0.481769 -0.00231776 0)
  (0.42639 -0.0334735 0)
  (0.365875 -0.0523392 0)
  (0.301078 -0.0602612 0)
  (0.235407 -0.0597899 0)
  (0.172972 -0.0536411 0)
  (0.116677 -0.04381 0)
  (0.0687887 -0.032495 0)
  (0.0297695 -0.0213802 0)
  (-0.00114228 -0.0113125 0)
  (-0.0220224 -0.00462467 0)
  (-0.033928 -0.00185528 0)
  (-0.0412098 -0.0015002 0)
  (-0.0464266 -0.00246643 0)
  (-0.0509197 -0.003831 0)
  (-0.0548744 -0.00516593 0)
  (-0.0582765 -0.00644156 0)
  (-0.0611591 -0.00769675 0)
  (-0.0636289 -0.00896804 0)
  (-0.0658976 -0.0102766 0)
  (-0.0682999 -0.0115364 0)
  (-0.0711818 -0.0124658 0)
  (-0.0748341 -0.0126542 0)
  (-0.0795801 -0.011582 0)
  (-0.0859173 -0.00857658 0)
  (-0.0945519 -0.00282067 0)
  (-0.105108 0.00621254 0)
  (-0.116071 0.0181292 0)
  (-0.133401 0.0332573 0)
  (-0.160786 0.05139 0)
  (-0.200631 0.0704483 0)
  (-0.256885 0.0850915 0)
  (-0.32023 0.0923379 0)
  (-0.391776 0.0929297 0)
  (-0.660376 0.0874065 0)
  (-0.179978 -0.0206258 0)
  (0.100168 -0.0358865 0)
  (0.17699 -0.0552918 0)
  (0.16395 -0.0477241 0)
  (0.144606 -0.0345382 0)
  (0.120418 -0.0225573 0)
  (0.0883581 -0.0123315 0)
  (0.0524844 -0.00438232 0)
  (0.0176372 0.00104589 0)
  (-0.0152151 0.00459055 0)
  (-0.0386675 0.00573791 0)
  (-0.0557665 0.0056806 0)
  (-0.0666684 0.00457165 0)
  (-0.0723731 0.0023719 0)
  (-0.0756204 -0.000211216 0)
  (-0.0779214 -0.00286078 0)
  (-0.0800895 -0.0055248 0)
  (-0.082551 -0.00796242 0)
  (-0.0854265 -0.00989216 0)
  (-0.0884888 -0.0113492 0)
  (-0.0916733 -0.0124109 0)
  (-0.0950959 -0.0131252 0)
  (-0.0989222 -0.0135123 0)
  (-0.103317 -0.0134906 0)
  (-0.108367 -0.0128197 0)
  (-0.114011 -0.011107 0)
  (-0.119998 -0.00784666 0)
  (-0.125856 -0.00248249 0)
  (-0.130857 0.00534243 0)
  (-0.134624 0.015988 0)
  (-0.137622 0.0304597 0)
  (-0.140435 0.0492139 0)
  (-0.144192 0.0711896 0)
  (-0.149527 0.0917509 0)
  (-0.152915 0.0994377 0)
  (-0.135104 0.0722628 0)
  (-0.081936 -0.0315549 0)
  (-0.289206 -0.225598 0)
  (0.0357703 0.198069 0)
  (0.0131626 0.0637646 0)
  (-0.0324997 0.0118679 0)
  (-0.0561643 0.0110756 0)
  (-0.0744661 0.0171768 0)
  (-0.0879332 0.0217913 0)
  (-0.0969249 0.0255808 0)
  (-0.10369 0.028728 0)
  (-0.108523 0.0306543 0)
  (-0.111709 0.0311081 0)
  (-0.113024 0.0306014 0)
  (-0.113013 0.0303676 0)
  (-0.111905 0.0305685 0)
  (-0.110292 0.0312541 0)
  (-0.108794 0.0326159 0)
  (-0.107679 0.0344848 0)
  (-0.107089 0.0363756 0)
  (-0.107065 0.0377125 0)
  (-0.10752 0.037901 0)
  (-0.108462 0.0369446 0)
  (-0.109852 0.0355069 0)
  (-0.111667 0.0337583 0)
  (-0.113876 0.0318006 0)
  (-0.116422 0.029731 0)
  (-0.119201 0.0276582 0)
  (-0.122027 0.0256931 0)
  (-0.124606 0.0239238 0)
  (-0.126386 0.0225919 0)
  (-0.126453 0.0231337 0)
  (-0.123484 0.0268577 0)
  (-0.115861 0.0349359 0)
  (-0.10242 0.0484719 0)
  (-0.0835272 0.0672529 0)
  (-0.0604666 0.0862936 0)
  (-0.0362986 0.0971766 0)
  (0.00715097 0.079664 0)
  (0.144573 0.00345274 0)
  (-0.207801 -0.138398 0)
  (-0.0929021 -0.347202 0)
  (-0.447376 -0.138574 0)
  (-0.334095 0.0445162 0)
  (-0.292209 -0.0442948 0)
  (-0.251358 -0.0509471 0)
  (-0.240066 -0.043675 0)
  (-0.232063 -0.0367496 0)
  (-0.222755 -0.0324259 0)
  (-0.21111 -0.030325 0)
  (-0.197424 -0.0305738 0)
  (-0.182694 -0.0337199 0)
  (-0.168349 -0.0397581 0)
  (-0.155624 -0.0478958 0)
  (-0.145131 -0.0568316 0)
  (-0.136948 -0.0660195 0)
  (-0.130902 -0.0751822 0)
  (-0.126592 -0.0839009 0)
  (-0.123552 -0.0917147 0)
  (-0.121441 -0.0981491 0)
  (-0.120076 -0.102736 0)
  (-0.119427 -0.10514 0)
  (-0.119508 -0.105378 0)
  (-0.12025 -0.104176 0)
  (-0.121481 -0.101761 0)
  (-0.123033 -0.0983033 0)
  (-0.124717 -0.0938879 0)
  (-0.12628 -0.088501 0)
  (-0.127371 -0.0820192 0)
  (-0.127539 -0.0741609 0)
  (-0.126179 -0.0647182 0)
  (-0.122155 -0.0542962 0)
  (-0.1133 -0.0427127 0)
  (-0.0966525 -0.0294523 0)
  (-0.0700973 -0.0135377 0)
  (-0.0350879 0.00577771 0)
  (0.0242814 0.0306399 0)
  (0.0748083 0.0313901 0)
  (0.123417 0.00961568 0)
  (0.176825 -0.0312882 0)
  (-0.177956 -0.0995765 0)
)
;

boundaryField
{
  floor
  {
    type noSlip;
  }
  ceiling
  {
    type noSlip;
  }
  sWall
  {
    type noSlip;
  }
  nWall
  {
    type noSlip;
  }
  sideWalls
  {
    type empty;
  }
  glass1
  {
    type noSlip;
  }
  glass2
  {
    type noSlip;
  }
  sun
  {
    type noSlip;
  }
  heatsource1
  {
    type noSlip;
  }
  heatsource2
  {
    type noSlip;
  }
  Table_master
  {
    type noSlip;
  }
  Table_slave
  {
    type noSlip;
  }
  inlet
  {
    type fixedValue;
    value uniform (0.277164 -0.114805 0);
  }
  outlet
  {
    type zeroGradient;
  }
} 	// ************************************************************************* //

