/*--------------------------------*- C++ -*----------------------------------*\
  =========                 |
  \\      /  F ield         | OpenFOAM: The Open Source CFD Toolbox
   \\    /   O peration     | Website:  https://openfoam.org
    \\  /    A nd           | Version:  6
     \\/     M anipulation  |
\*---------------------------------------------------------------------------*/
FoamFile
{
    version     2.0;
    format      ascii;
    class       volScalarField;
    location    "2200";
    object      epsilon;
}
// * * * * * * * * * * * * * * * * * * * * * * * * * * * * * * * * * * * * * //

dimensions      [0 2 -3 0 0 0 0];

internalField   nonuniform List<scalar> 
459
(
0.00052278
0.000687116
0.000728185
0.000841676
0.000958288
0.00107847
0.00120814
0.00133528
0.00142498
0.00145559
0.00141114
0.00128849
0.00109957
0.000875834
0.000661475
4.83431e-05
8.52079e-05
0.000121414
0.000120749
0.000109216
9.48092e-05
7.82401e-05
6.37791e-05
5.23064e-05
4.33593e-05
3.63483e-05
3.0796e-05
2.6363e-05
2.27667e-05
1.97588e-05
1.7126e-05
1.46671e-05
1.32542e-05
1.01951e-05
0.00131701
0.00186043
0.000650711
0.00063322
0.000669287
0.000726806
0.000809384
0.000909911
0.000998179
0.00104645
0.00103573
0.000962784
0.000837409
0.000687196
0.000572584
0.000717975
0.000142808
5.78583e-05
0.000137158
0.000146509
0.000133948
0.000114378
9.5951e-05
8.66094e-05
7.00903e-05
5.55025e-05
4.3963e-05
3.50756e-05
2.82592e-05
2.30319e-05
1.90282e-05
1.60767e-05
1.42786e-05
1.35309e-05
3.50277e-05
2.37484e-05
0.00238366
0.0044875
0.000816086
0.000613834
0.000651645
0.00074345
0.000874636
0.00102646
0.00115272
0.00121914
0.00121135
0.0011341
0.000999601
0.000841065
0.000696721
0.000629906
0.000777055
0.000418098
0.000306551
0.000234235
0.000182369
0.000144303
0.000121807
0.000223966
0.000153809
0.000109402
8.05498e-05
6.12111e-05
4.78478e-05
3.83735e-05
3.15521e-05
2.66737e-05
2.02376e-05
1.70549e-05
6.67442e-05
3.77833e-05
0.00382579
0.00920605
0.00130647
0.000643755
0.000662474
0.00079986
0.00101254
0.00123751
0.00139298
0.00145642
0.0014305
0.00132992
0.00116316
0.000973565
0.000803654
0.00069016
0.000671947
0.00127472
0.000724736
0.000437969
0.000294234
0.000212413
0.000161839
0.000138535
0.000318549
0.000240367
0.000193063
0.00016124
0.000136793
0.000116776
9.94295e-05
8.31853e-05
6.67316e-05
3.91996e-05
2.61627e-05
0.000114443
5.11715e-05
0.00578804
0.0162383
0.00259229
0.000820961
0.000740806
0.000944521
0.0013289
0.00162258
0.00176417
0.00178639
0.00171666
0.00156883
0.00135663
0.00111156
0.00087308
0.000675535
0.000539697
0.00048508
0.0003957
0.000312217
0.000244748
0.000192744
0.000153894
0.000128274
0.000123737
0.000114898
0.000106049
9.72106e-05
8.7893e-05
7.8272e-05
6.89065e-05
6.0142e-05
5.20852e-05
4.11726e-05
3.17648e-05
8.05667e-05
5.74932e-05
9.26581e-05
0.00015806
0.000221891
0.00848762
0.0239321
0.00578955
0.00169475
0.00126854
0.00162597
0.00213354
0.0023233
0.00233871
0.00226296
0.00211993
0.00190305
0.0016157
0.00128728
0.000965486
0.000697051
0.000508628
0.000398505
0.000327705
0.000269598
0.000218193
0.000175782
0.000143648
0.000122379
0.000112271
0.000107891
0.00010501
0.000101277
9.53728e-05
8.63166e-05
7.48648e-05
6.34498e-05
5.3197e-05
4.40885e-05
3.8738e-05
5.7614e-05
5.92132e-05
7.14572e-05
0.000295248
0.000255908
0.0114935
0.0284576
0.0116781
0.0053802
0.0040202
0.004011
0.00379597
0.00350121
0.00321463
0.00295304
0.0026804
0.00234896
0.00194461
0.00149923
0.00107312
0.000728914
0.000497119
0.00036428
0.000288312
0.00023394
0.000189245
0.000154595
0.000130831
0.000117666
0.000113743
0.000115338
0.000118637
0.000121624
0.000122843
0.000120227
0.000109384
9.60501e-05
8.3125e-05
7.21405e-05
6.83867e-05
8.00511e-05
0.000104637
0.000177244
0.000416906
0.000391029
0.0120733
0.0297912
0.0171791
0.012289
0.00966069
0.00752988
0.00600288
0.0049898
0.00433162
0.00386019
0.00342236
0.00291398
0.00232147
0.00170033
0.00113233
0.000704683
0.000442933
0.000304439
0.000233297
0.00018781
0.000154632
0.000132301
0.000119963
0.000116225
0.000119281
0.000126962
0.00013767
0.000150981
0.000166961
0.000185357
0.000204569
0.000212773
0.000223329
0.000246969
0.000296847
0.00046112
0.000897556
0.00181838
0.00537321
0.00144022
0.0110775
0.0181495
0.014582
0.0111719
0.00878244
0.00728632
0.00639187
0.00585739
0.00546569
0.00502057
0.0043868
0.00353324
0.00259036
0.00170381
0.000966038
0.000520561
0.000321574
0.000227311
0.000176723
0.000145096
0.000124861
0.000113698
0.000110026
0.000112366
0.000119498
0.000130689
0.000145991
0.000166355
0.000193537
0.000230125
0.000279655
0.000347454
0.000441553
0.0005867
0.000800002
0.00108733
0.00140975
0.0016779
0.00187203
0.00112319
0.0037234
0.00657077
0.0084277
0.00891476
0.00890189
0.00843182
0.0074389
0.0060365
0.00443534
0.00278441
0.00167505
0.000970142
0.00055092
0.000333365
0.000228792
0.000175624
0.00014531
0.000126159
0.000114164
0.000107906
0.00010639
0.0001087
0.000114287
0.000123051
0.000135387
0.000152275
0.000175455
0.000207761
0.000253663
0.000319134
0.000411286
0.000539243
0.000705279
0.000889075
0.00103384
0.00106722
0.000935981
0.000587639
0.00371565
0.00849227
0.0084829
0.00702966
0.00608142
0.00509443
0.00401503
0.00295232
0.00200773
0.00125245
0.000761468
0.00047237
0.000314237
0.000232768
0.000190592
0.000166475
0.000150531
0.000138837
0.000130009
0.000123775
0.000120446
0.000120047
0.000122736
0.000128932
0.000139353
0.000155075
0.000177679
0.000209483
0.000253817
0.000315296
0.000400106
0.000514368
0.000658366
0.000822264
0.000944173
0.00105119
0.000804306
0.000609711
0.00267146
0.00318817
0.00359942
0.00451746
0.0040052
0.00356392
0.00322477
0.00277163
0.00222981
0.00167871
0.00118117
0.00078822
0.000520806
0.000356516
0.000258966
0.000199949
0.000162836
0.000138867
0.000123624
0.00011478
0.000110946
0.00011113
0.000114158
0.000119756
0.000127905
0.000138807
0.000152885
0.000170849
0.000193893
0.000223723
0.000261314
0.000308781
0.000368755
0.000444682
0.000540241
0.00068686
0.00073336
0.000680518
0.000552388
0.000433776
)
;

boundaryField
{
    floor
    {
        Cmu             0.09;
        kappa           0.41;
        E               9.8;
        type            epsilonWallFunction;
        value           nonuniform List<scalar> 
29
(
0.000661475
4.83431e-05
8.52079e-05
0.000121414
0.000120749
0.000109216
9.48092e-05
7.82401e-05
6.37791e-05
5.23064e-05
4.33593e-05
3.63483e-05
3.0796e-05
2.6363e-05
2.27667e-05
1.97588e-05
1.7126e-05
1.46671e-05
1.32542e-05
1.01951e-05
1.01951e-05
2.37484e-05
3.77833e-05
5.11715e-05
0.000661475
4.83431e-05
5.78583e-05
0.000418098
0.00127472
)
;
    }
    ceiling
    {
        Cmu             0.09;
        kappa           0.41;
        E               9.8;
        type            epsilonWallFunction;
        value           nonuniform List<scalar> 
43
(
0.00267146
0.00318817
0.00359942
0.00451746
0.0040052
0.00356392
0.00322477
0.00277163
0.00222981
0.00167871
0.00118117
0.00078822
0.000520806
0.000356516
0.000258966
0.000199949
0.000162836
0.000138867
0.000123624
0.00011478
0.000110946
0.00011113
0.000114158
0.000119756
0.000127905
0.000138807
0.000152885
0.000170849
0.000193893
0.000223723
0.000261314
0.000308781
0.000368755
0.000444682
0.000540241
0.00068686
0.00073336
0.000680518
0.000552388
0.000433776
0.0110775
0.0181495
0.00371565
)
;
    }
    sWall
    {
        Cmu             0.09;
        kappa           0.41;
        E               9.8;
        type            epsilonWallFunction;
        value           uniform 0.00267146;
    }
    nWall
    {
        Cmu             0.09;
        kappa           0.41;
        E               9.8;
        type            epsilonWallFunction;
        value           nonuniform List<scalar> 6(0.000221891 0.000255908 0.000391029 0.000587639 0.000609711 0.000433776);
    }
    sideWalls
    {
        type            empty;
    }
    glass1
    {
        Cmu             0.09;
        kappa           0.41;
        E               9.8;
        type            epsilonWallFunction;
        value           nonuniform List<scalar> 9(0.00052278 0.00131701 0.00238366 0.00382579 0.00578804 0.00848762 0.0114935 0.0120733 0.0110775);
    }
    glass2
    {
        Cmu             0.09;
        kappa           0.41;
        E               9.8;
        type            epsilonWallFunction;
        value           nonuniform List<scalar> 2(0.00144022 0.00112319);
    }
    sun
    {
        Cmu             0.09;
        kappa           0.41;
        E               9.8;
        type            epsilonWallFunction;
        value           nonuniform List<scalar> 
14
(
0.00052278
0.000687116
0.000728185
0.000841676
0.000958288
0.00107847
0.00120814
0.00133528
0.00142498
0.00145559
0.00141114
0.00128849
0.00109957
0.000875834
)
;
    }
    heatsource1
    {
        Cmu             0.09;
        kappa           0.41;
        E               9.8;
        type            epsilonWallFunction;
        value           nonuniform List<scalar> 3(9.26581e-05 0.00015806 0.000221891);
    }
    heatsource2
    {
        Cmu             0.09;
        kappa           0.41;
        E               9.8;
        type            epsilonWallFunction;
        value           nonuniform List<scalar> 4(0.000717975 0.000142808 0.000142808 0.000777055);
    }
    Table_master
    {
        Cmu             0.09;
        kappa           0.41;
        E               9.8;
        type            epsilonWallFunction;
        value           nonuniform List<scalar> 9(0.000223966 0.000153809 0.000109402 8.05498e-05 6.12111e-05 4.78478e-05 3.83735e-05 3.15521e-05 2.66737e-05);
    }
    Table_slave
    {
        Cmu             0.09;
        kappa           0.41;
        E               9.8;
        type            epsilonWallFunction;
        value           nonuniform List<scalar> 9(0.000318549 0.000240367 0.000193063 0.00016124 0.000136793 0.000116776 9.94295e-05 8.31853e-05 6.67316e-05);
    }
    inlet
    {
        type            turbulentMixingLengthDissipationRateInlet;
        mixingLength    0.01;
        phi             phi;
        k               k;
        value           uniform 0.000101881;
    }
    outlet
    {
        type            zeroGradient;
    }
}


// ************************************************************************* //
