/*--------------------------------*- C++ -*----------------------------------*\
  =========                 |
  \\      /  F ield         | OpenFOAM: The Open Source CFD Toolbox
   \\    /   O peration     | Website:  https://openfoam.org
    \\  /    A nd           | Version:  6
     \\/     M anipulation  |
\*---------------------------------------------------------------------------*/
FoamFile
{
    version     2.0;
    format      ascii;
    class       volVectorField;
    location    "3000";
    object      U;
}
// * * * * * * * * * * * * * * * * * * * * * * * * * * * * * * * * * * * * * //

dimensions      [0 1 -1 0 0 0 0];

internalField   nonuniform List<vector> 
459
(
(0.0332386 0.088266 0)
(-0.17175 0.0265095 0)
(-0.196994 0.017862 0)
(-0.227716 0.011861 0)
(-0.249304 0.00529779 0)
(-0.260785 -0.00156769 0)
(-0.260694 -0.00874151 0)
(-0.248404 -0.0161806 0)
(-0.224869 -0.023125 0)
(-0.192177 -0.0284709 0)
(-0.153802 -0.0313914 0)
(-0.113545 -0.0315961 0)
(-0.0749945 -0.0294161 0)
(-0.0431988 -0.0262485 0)
(-0.033245 -0.0238649 0)
(-0.00321477 0.00875678 0)
(-0.028241 -0.0195841 0)
(-0.00262108 -0.0296352 0)
(0.0218835 -0.0221443 0)
(0.0393236 -0.0149788 0)
(0.0526047 -0.00960652 0)
(0.0606211 -0.00570881 0)
(0.0646561 -0.00367098 0)
(0.0664616 -0.00280084 0)
(0.0673739 -0.00238179 0)
(0.0679377 -0.002109 0)
(0.068233 -0.00188716 0)
(0.0681951 -0.001622 0)
(0.0676084 -0.00113248 0)
(0.0658819 -2.15811e-05 0)
(0.0617601 0.00226306 0)
(0.0538833 0.00465911 0)
(0.0466943 0.00662885 0)
(-0.0142307 0.0229872 0)
(0.209545 0.180342 0)
(-0.158772 0.0697811 0)
(-0.157482 0.0529981 0)
(-0.188902 0.0403448 0)
(-0.21008 0.0261486 0)
(-0.221657 0.010475 0)
(-0.222114 -0.00676045 0)
(-0.210822 -0.0246312 0)
(-0.18931 -0.0406648 0)
(-0.159988 -0.0524253 0)
(-0.126352 -0.0583807 0)
(-0.0918616 -0.0582749 0)
(-0.0596541 -0.0527051 0)
(-0.0331175 -0.0432217 0)
(-0.0164915 -0.031717 0)
(-0.00287446 -0.0137739 0)
(-0.00354363 0.0170591 0)
(0.0722005 0.0367452 0)
(0.031308 -0.0207391 0)
(0.0391952 -0.0341575 0)
(0.0513159 -0.0295533 0)
(0.060838 -0.0206735 0)
(0.0673675 -0.0123832 0)
(0.0700751 -0.00515353 0)
(0.0705085 -0.00113396 0)
(0.0704055 0.000551003 0)
(0.0704863 0.00131013 0)
(0.0706675 0.00177017 0)
(0.0707959 0.0021507 0)
(0.0708236 0.00263638 0)
(0.0706969 0.00359194 0)
(0.0698505 0.00597531 0)
(0.0657002 0.0126014 0)
(0.0552737 0.01811 0)
(0.0505928 0.0217855 0)
(-0.0553615 0.049535 0)
(0.370694 0.269336 0)
(-0.173745 0.11052 0)
(-0.117733 0.085242 0)
(-0.147607 0.0629214 0)
(-0.166074 0.0396684 0)
(-0.176291 0.0143496 0)
(-0.175713 -0.0134282 0)
(-0.163585 -0.0416836 0)
(-0.142607 -0.0660606 0)
(-0.1158 -0.0829077 0)
(-0.0866725 -0.0904142 0)
(-0.0579138 -0.0889142 0)
(-0.0315515 -0.0795102 0)
(-0.00966026 -0.0640965 0)
(0.0067661 -0.0431359 0)
(0.0179947 -0.0176013 0)
(0.02369 0.0193541 0)
(0.120658 -0.0369206 0)
(0.0796328 -0.044721 0)
(0.0738976 -0.0427677 0)
(0.0759618 -0.0353042 0)
(0.0775806 -0.0257548 0)
(0.0787036 -0.017476 0)
(0.0770989 -0.0139035 0)
(0.0724634 -0.00973007 0)
(0.0692058 -0.00745295 0)
(0.067764 -0.00614044 0)
(0.0671694 -0.00529727 0)
(0.0668923 -0.0047074 0)
(0.0669458 -0.00415938 0)
(0.0678263 -0.00326436 0)
(0.0708095 5.45287e-05 0)
(0.0684535 0.0181549 0)
(0.0537769 0.0307161 0)
(0.0571602 0.0389492 0)
(-0.0921361 0.0766953 0)
(0.515491 0.34067 0)
(-0.20661 0.146462 0)
(-0.0765243 0.112312 0)
(-0.103782 0.0816575 0)
(-0.11648 0.0515232 0)
(-0.122384 0.0179439 0)
(-0.117039 -0.0202986 0)
(-0.101812 -0.0588575 0)
(-0.0810482 -0.0902193 0)
(-0.0578995 -0.110358 0)
(-0.0353073 -0.117986 0)
(-0.0144374 -0.114679 0)
(0.00439394 -0.101713 0)
(0.020008 -0.0820849 0)
(0.033627 -0.0579133 0)
(0.0485718 -0.030597 0)
(0.0712328 -0.000394831 0)
(0.103849 0.0134675 0)
(0.109792 -0.0290024 0)
(0.0942373 -0.0388802 0)
(0.0848353 -0.0364791 0)
(0.0801805 -0.0308947 0)
(0.0770151 -0.02348 0)
(0.0753732 -0.0144213 0)
(0.077417 -0.00857963 0)
(0.0825679 -0.00656269 0)
(0.0868027 -0.00538958 0)
(0.0895566 -0.00446841 0)
(0.0910746 -0.00335919 0)
(0.0907087 -0.00179055 0)
(0.0874245 0.000439341 0)
(0.0799733 0.00363392 0)
(0.0653489 0.00839957 0)
(0.0529776 0.0297811 0)
(0.04027 0.0472344 0)
(0.0606835 0.0603868 0)
(-0.13508 0.0999473 0)
(0.639651 0.395778 0)
(-0.24709 0.175684 0)
(-0.0367673 0.12729 0)
(-0.0579931 0.0917228 0)
(-0.0621139 0.057443 0)
(-0.0596169 0.0172342 0)
(-0.0426359 -0.0312043 0)
(-0.0232691 -0.0772146 0)
(-0.00457572 -0.111341 0)
(0.0119138 -0.130997 0)
(0.0245648 -0.13591 0)
(0.0345234 -0.129718 0)
(0.0422105 -0.114805 0)
(0.0485198 -0.093871 0)
(0.0546816 -0.0695898 0)
(0.0626109 -0.0451379 0)
(0.0750162 -0.0265251 0)
(0.0859065 -0.025487 0)
(0.08696 -0.0341855 0)
(0.0798635 -0.0345729 0)
(0.0711631 -0.0305967 0)
(0.0644124 -0.0255826 0)
(0.0596171 -0.0199259 0)
(0.0570744 -0.0136745 0)
(0.0573692 -0.00773984 0)
(0.0600899 -0.00488551 0)
(0.0630562 -0.0037185 0)
(0.0657991 -0.00264029 0)
(0.0681627 -0.000612263 0)
(0.0696668 0.00283033 0)
(0.0690968 0.00772445 0)
(0.0659341 0.0142231 0)
(0.0594868 0.0230602 0)
(0.0518112 0.0394671 0)
(0.0402264 0.0590565 0)
(0.0683071 0.0804274 0)
(-0.0349261 0.112453 0)
(0.0474691 0.0269914 0)
(-0.0690742 -0.0378286 0)
(-0.286074 -0.0613958 0)
(0.729009 0.441459 0)
(-0.286305 0.19488 0)
(-0.00690449 0.121521 0)
(-0.00961795 0.0895834 0)
(-0.000684616 0.0539259 0)
(0.0199748 0.00461814 0)
(0.0496012 -0.0510378 0)
(0.0692919 -0.0950999 0)
(0.0815175 -0.124548 0)
(0.0870058 -0.139446 0)
(0.087159 -0.141206 0)
(0.0837595 -0.132436 0)
(0.0783223 -0.115957 0)
(0.0724429 -0.0947042 0)
(0.0675686 -0.0714414 0)
(0.0649683 -0.0492187 0)
(0.065363 -0.0321247 0)
(0.0656096 -0.0251845 0)
(0.0617516 -0.0251136 0)
(0.0539924 -0.0248744 0)
(0.045433 -0.022612 0)
(0.0384952 -0.0194221 0)
(0.0336992 -0.0158486 0)
(0.0313094 -0.0120584 0)
(0.03142 -0.00884049 0)
(0.0335386 -0.00759296 0)
(0.0365597 -0.00727353 0)
(0.0400303 -0.00652603 0)
(0.0437143 -0.00429086 0)
(0.0474311 0.000260623 0)
(0.050247 0.00712004 0)
(0.0514383 0.0159111 0)
(0.0513418 0.0269687 0)
(0.0515107 0.0422244 0)
(0.0491507 0.0612993 0)
(0.0764702 0.0860383 0)
(0.0487729 0.10519 0)
(0.0975063 0.069756 0)
(0.122235 0.0453383 0)
(-0.138439 -0.0100138 0)
(0.785914 0.483226 0)
(-0.304136 0.179283 0)
(0.0241292 0.0652469 0)
(0.0579176 0.0549215 0)
(0.084232 0.028757 0)
(0.128492 -0.0255822 0)
(0.157058 -0.0739015 0)
(0.170726 -0.108137 0)
(0.17156 -0.128243 0)
(0.162274 -0.135625 0)
(0.146053 -0.132157 0)
(0.126012 -0.120295 0)
(0.104847 -0.102826 0)
(0.0848054 -0.0824145 0)
(0.0674727 -0.0612715 0)
(0.0538256 -0.0418444 0)
(0.0440797 -0.0270793 0)
(0.0365866 -0.019378 0)
(0.0290441 -0.0171419 0)
(0.0209297 -0.0165075 0)
(0.0133792 -0.0154131 0)
(0.00747754 -0.013962 0)
(0.00355179 -0.0124395 0)
(0.00174005 -0.0109859 0)
(0.00199798 -0.0100785 0)
(0.00382882 -0.0102215 0)
(0.0065297 -0.0107137 0)
(0.00983396 -0.0105828 0)
(0.0137747 -0.00889631 0)
(0.0184806 -0.00459148 0)
(0.0252026 0.0032288 0)
(0.0308813 0.0128833 0)
(0.0364355 0.0240162 0)
(0.0437781 0.0375283 0)
(0.051153 0.053086 0)
(0.0763021 0.073212 0)
(0.088606 0.0805314 0)
(0.125381 0.0523092 0)
(0.167944 0.0428463 0)
(-0.0320737 0.0967214 0)
(0.893908 0.482608 0)
(-0.0560357 0.157639 0)
(0.119689 -0.0236762 0)
(0.208365 -0.059926 0)
(0.254526 -0.0735678 0)
(0.279289 -0.0902553 0)
(0.287828 -0.105609 0)
(0.279656 -0.115256 0)
(0.257004 -0.118076 0)
(0.224159 -0.114297 0)
(0.185855 -0.104783 0)
(0.146202 -0.0907896 0)
(0.108497 -0.0741771 0)
(0.0750501 -0.0567446 0)
(0.0470647 -0.0397064 0)
(0.0253217 -0.0248338 0)
(0.00988347 -0.0144618 0)
(-0.000804125 -0.00956089 0)
(-0.00876608 -0.00864914 0)
(-0.0154682 -0.00900868 0)
(-0.0210712 -0.00933631 0)
(-0.0253599 -0.00955172 0)
(-0.0282968 -0.00978801 0)
(-0.0298981 -0.0101709 0)
(-0.0303072 -0.010896 0)
(-0.0299126 -0.0120215 0)
(-0.0291162 -0.0131828 0)
(-0.0280178 -0.0138812 0)
(-0.026429 -0.0136061 0)
(-0.0239018 -0.0117503 0)
(-0.0192763 -0.00750947 0)
(-0.00874032 -0.000219981 0)
(-0.000414863 0.00852118 0)
(0.0108311 0.0171197 0)
(0.0224236 0.0247936 0)
(0.0437023 0.0335444 0)
(0.0622691 0.0257534 0)
(0.0811649 -0.00561695 0)
(0.142742 0.0449124 0)
(-0.455408 0.222102 0)
(1.04625 0.426961 0)
(0.495611 0.278741 0)
(0.514783 0.172826 0)
(0.549854 0.0944759 0)
(0.529688 0.0404123 0)
(0.481764 -0.00232764 0)
(0.426382 -0.0334805 0)
(0.365866 -0.0523421 0)
(0.301067 -0.06026 0)
(0.235395 -0.0597849 0)
(0.17296 -0.0536328 0)
(0.116665 -0.0437986 0)
(0.0687803 -0.0324814 0)
(0.0297661 -0.0213683 0)
(-0.0011372 -0.0113092 0)
(-0.0220087 -0.00462997 0)
(-0.0339114 -0.00186176 0)
(-0.0411941 -0.00150204 0)
(-0.0464131 -0.00246062 0)
(-0.0509085 -0.00381739 0)
(-0.0548651 -0.00514625 0)
(-0.0582684 -0.0064206 0)
(-0.0611509 -0.00767915 0)
(-0.0636201 -0.00895615 0)
(-0.0658895 -0.010272 0)
(-0.0682931 -0.0115393 0)
(-0.0711761 -0.0124753 0)
(-0.0748291 -0.0126663 0)
(-0.0795758 -0.0115931 0)
(-0.0859127 -0.00858523 0)
(-0.0945456 -0.00282768 0)
(-0.105103 0.00620474 0)
(-0.116065 0.0181193 0)
(-0.133392 0.0332465 0)
(-0.160772 0.0513799 0)
(-0.200614 0.0704393 0)
(-0.256857 0.0850872 0)
(-0.320193 0.0923391 0)
(-0.391744 0.0929386 0)
(-0.660355 0.0874234 0)
(-0.179996 -0.0206365 0)
(0.100157 -0.0359017 0)
(0.176982 -0.0553012 0)
(0.163939 -0.0477294 0)
(0.144593 -0.0345399 0)
(0.120403 -0.0225551 0)
(0.0883393 -0.0123254 0)
(0.0524638 -0.00437388 0)
(0.0176175 0.00105497 0)
(-0.0152304 0.00459888 0)
(-0.0386731 0.00574394 0)
(-0.0557623 0.00568172 0)
(-0.0666561 0.00456707 0)
(-0.0723586 0.00236537 0)
(-0.075607 -0.000215564 0)
(-0.0779112 -0.00286098 0)
(-0.0800828 -0.0055212 0)
(-0.0825462 -0.00795601 0)
(-0.0854208 -0.0098848 0)
(-0.088481 -0.0113396 0)
(-0.0916602 -0.0124004 0)
(-0.0950769 -0.0131143 0)
(-0.0988985 -0.0135026 0)
(-0.10329 -0.0134849 0)
(-0.108339 -0.0128193 0)
(-0.113984 -0.0111094 0)
(-0.119974 -0.00785015 0)
(-0.125835 -0.00248623 0)
(-0.130839 0.00533885 0)
(-0.134609 0.0159816 0)
(-0.137609 0.0304496 0)
(-0.140425 0.0492018 0)
(-0.144185 0.0711766 0)
(-0.149522 0.0917378 0)
(-0.152911 0.0994291 0)
(-0.135107 0.0722615 0)
(-0.0819716 -0.0315453 0)
(-0.289188 -0.225583 0)
(0.035769 0.198067 0)
(0.0131638 0.0637599 0)
(-0.0325034 0.0118632 0)
(-0.0561742 0.0110735 0)
(-0.0744791 0.0171772 0)
(-0.0879469 0.0217942 0)
(-0.0969353 0.0255849 0)
(-0.103698 0.0287322 0)
(-0.108527 0.0306571 0)
(-0.111709 0.0311089 0)
(-0.11302 0.0306 0)
(-0.113006 0.0303631 0)
(-0.111897 0.030562 0)
(-0.110286 0.0312495 0)
(-0.108791 0.032618 0)
(-0.107678 0.0344967 0)
(-0.107086 0.0363973 0)
(-0.107058 0.037743 0)
(-0.107507 0.0379394 0)
(-0.108442 0.0369718 0)
(-0.109827 0.0355197 0)
(-0.111638 0.033759 0)
(-0.113843 0.031791 0)
(-0.11639 0.0297126 0)
(-0.11917 0.0276352 0)
(-0.122 0.0256717 0)
(-0.124582 0.0239059 0)
(-0.126366 0.0225764 0)
(-0.126436 0.0231198 0)
(-0.123471 0.0268433 0)
(-0.115851 0.0349205 0)
(-0.102416 0.0484573 0)
(-0.0835289 0.0672396 0)
(-0.0604718 0.0862809 0)
(-0.0363027 0.0971674 0)
(0.00713632 0.0796669 0)
(0.144561 0.00345738 0)
(-0.207791 -0.138392 0)
(-0.0928916 -0.347198 0)
(-0.447372 -0.138575 0)
(-0.334093 0.0445119 0)
(-0.29221 -0.0442986 0)
(-0.251363 -0.0509478 0)
(-0.240073 -0.0436737 0)
(-0.23207 -0.0367471 0)
(-0.222761 -0.0324222 0)
(-0.211114 -0.0303206 0)
(-0.197424 -0.03057 0)
(-0.182692 -0.0337186 0)
(-0.168346 -0.039761 0)
(-0.155622 -0.047904 0)
(-0.145134 -0.0568458 0)
(-0.136957 -0.0660371 0)
(-0.130916 -0.0751971 0)
(-0.126608 -0.0839096 0)
(-0.123567 -0.0917245 0)
(-0.121452 -0.098169 0)
(-0.120079 -0.102763 0)
(-0.119421 -0.105172 0)
(-0.119492 -0.105401 0)
(-0.120228 -0.104187 0)
(-0.121454 -0.101761 0)
(-0.123005 -0.0982938 0)
(-0.12469 -0.0938732 0)
(-0.126257 -0.0884848 0)
(-0.127353 -0.0820023 0)
(-0.127525 -0.0741437 0)
(-0.126167 -0.064698 0)
(-0.122145 -0.0542721 0)
(-0.113292 -0.0426873 0)
(-0.0966481 -0.0294251 0)
(-0.0700975 -0.0135054 0)
(-0.0350914 0.00581315 0)
(0.0242685 0.0306595 0)
(0.0747949 0.0314069 0)
(0.123401 0.00963555 0)
(0.176815 -0.0312704 0)
(-0.177952 -0.0995632 0)
)
;

boundaryField
{
    floor
    {
        type            noSlip;
    }
    ceiling
    {
        type            noSlip;
    }
    sWall
    {
        type            noSlip;
    }
    nWall
    {
        type            noSlip;
    }
    sideWalls
    {
        type            empty;
    }
    glass1
    {
        type            noSlip;
    }
    glass2
    {
        type            noSlip;
    }
    sun
    {
        type            noSlip;
    }
    heatsource1
    {
        type            noSlip;
    }
    heatsource2
    {
        type            noSlip;
    }
    Table_master
    {
        type            noSlip;
    }
    Table_slave
    {
        type            noSlip;
    }
    inlet
    {
        type            fixedValue;
        value           uniform (0.277164 -0.114805 0);
    }
    outlet
    {
        type            zeroGradient;
    }
}


// ************************************************************************* //
