// -*- C++ -*-
// File generated by PyFoam - sorry for the ugliness

FoamFile
{
 version 2.0;
 format ascii;
 class volVectorField;
 location "1300";
 object U;
}

dimensions [ 0 1 -1 0 0 0 0 ];

internalField nonuniform List<vector> 459
(
  (0.0330183 0.0884343 0)
  (-0.172134 0.0265776 0)
  (-0.197544 0.0178132 0)
  (-0.228248 0.0117034 0)
  (-0.249644 0.00502223 0)
  (-0.260702 -0.00197507 0)
  (-0.259897 -0.0092864 0)
  (-0.246721 -0.0168519 0)
  (-0.222195 -0.0238319 0)
  (-0.18859 -0.0290897 0)
  (-0.14954 -0.0317948 0)
  (-0.108995 -0.0316264 0)
  (-0.0706777 -0.0288297 0)
  (-0.0396426 -0.0247058 0)
  (-0.0311401 -0.0211085 0)
  (-0.00410935 0.00902492 0)
  (-0.029349 -0.0194337 0)
  (-0.0040397 -0.0297643 0)
  (0.0210255 -0.0224556 0)
  (0.0385484 -0.0152855 0)
  (0.0521312 -0.00984824 0)
  (0.0604341 -0.00582679 0)
  (0.0646463 -0.00371482 0)
  (0.0665224 -0.0028261 0)
  (0.0674615 -0.00241077 0)
  (0.0680497 -0.00214186 0)
  (0.0683729 -0.00192105 0)
  (0.0683611 -0.00165779 0)
  (0.0677984 -0.00117072 0)
  (0.0660957 -6.36312e-05 0)
  (0.0619985 0.0022139 0)
  (0.0541518 0.00461029 0)
  (0.046911 0.00663629 0)
  (-0.0138405 0.0231153 0)
  (0.209365 0.180736 0)
  (-0.159092 0.0700998 0)
  (-0.158042 0.0531177 0)
  (-0.189504 0.0402271 0)
  (-0.210552 0.0257416 0)
  (-0.22176 0.00971742 0)
  (-0.221534 -0.00789892 0)
  (-0.209417 -0.0260481 0)
  (-0.187021 -0.0421325 0)
  (-0.156942 -0.0536781 0)
  (-0.12278 -0.0592206 0)
  (-0.0880543 -0.0585283 0)
  (-0.0559064 -0.0521562 0)
  (-0.0295755 -0.0416732 0)
  (-0.0132669 -0.0294018 0)
  (0.00019937 -0.0116461 0)
  (-0.00121557 0.0168189 0)
  (0.0715444 0.0376359 0)
  (0.0299845 -0.0206765 0)
  (0.0383465 -0.0345113 0)
  (0.0505962 -0.0301136 0)
  (0.0602728 -0.0212685 0)
  (0.0670397 -0.0129193 0)
  (0.0699074 -0.0054143 0)
  (0.0703964 -0.00120727 0)
  (0.0702997 0.000539562 0)
  (0.0703865 0.00130588 0)
  (0.0705797 0.00176518 0)
  (0.0707193 0.00214556 0)
  (0.0707562 0.00263297 0)
  (0.070635 0.00358583 0)
  (0.0697948 0.00595994 0)
  (0.0656576 0.0125604 0)
  (0.0552598 0.0180571 0)
  (0.05059 0.021798 0)
  (-0.0553379 0.0497635 0)
  (0.370581 0.269955 0)
  (-0.173945 0.111027 0)
  (-0.118231 0.0854659 0)
  (-0.148207 0.0627614 0)
  (-0.166629 0.0390178 0)
  (-0.176528 0.0131069 0)
  (-0.175227 -0.0152744 0)
  (-0.162303 -0.0439227 0)
  (-0.140562 -0.0682835 0)
  (-0.113211 -0.084691 0)
  (-0.0837675 -0.0915223 0)
  (-0.0549249 -0.0891843 0)
  (-0.0286428 -0.0787537 0)
  (-0.00680758 -0.0621994 0)
  (0.00932438 -0.0405686 0)
  (0.0202527 -0.0150356 0)
  (0.0253201 0.0221139 0)
  (0.121245 -0.0346865 0)
  (0.0799352 -0.0438535 0)
  (0.0739982 -0.0427552 0)
  (0.0759321 -0.0357418 0)
  (0.0775168 -0.0263984 0)
  (0.078745 -0.0182401 0)
  (0.0772639 -0.014454 0)
  (0.0724724 -0.0100629 0)
  (0.0690697 -0.00767148 0)
  (0.0675612 -0.00630038 0)
  (0.0669317 -0.00541941 0)
  (0.0666224 -0.00480255 0)
  (0.0666422 -0.00423764 0)
  (0.067491 -0.00333031 0)
  (0.0704379 5.93613e-06 0)
  (0.0680719 0.0180985 0)
  (0.0534246 0.0306206 0)
  (0.0570109 0.0388636 0)
  (-0.0926041 0.0769065 0)
  (0.515529 0.341485 0)
  (-0.206709 0.147125 0)
  (-0.0768975 0.112689 0)
  (-0.104298 0.0815479 0)
  (-0.117036 0.0507092 0)
  (-0.122634 0.0162144 0)
  (-0.1164 -0.0229296 0)
  (-0.100484 -0.0619004 0)
  (-0.0791905 -0.0930779 0)
  (-0.05582 -0.112495 0)
  (-0.0331459 -0.119233 0)
  (-0.0123552 -0.114928 0)
  (0.00642194 -0.10075 0)
  (0.0219088 -0.0801746 0)
  (0.0355449 -0.055304 0)
  (0.0505629 -0.0276775 0)
  (0.0730213 0.00315215 0)
  (0.105642 0.0162997 0)
  (0.110992 -0.0272438 0)
  (0.0953057 -0.0381304 0)
  (0.0857134 -0.0364125 0)
  (0.0807795 -0.0312274 0)
  (0.0773222 -0.0240313 0)
  (0.0753641 -0.0150941 0)
  (0.0772186 -0.00897415 0)
  (0.0824464 -0.00678489 0)
  (0.0867413 -0.00551804 0)
  (0.0894849 -0.00454713 0)
  (0.0909718 -0.00341004 0)
  (0.0905765 -0.00182009 0)
  (0.0872671 0.000429871 0)
  (0.0797816 0.00364902 0)
  (0.0651033 0.00845059 0)
  (0.0526279 0.029767 0)
  (0.039843 0.0471225 0)
  (0.0605575 0.060186 0)
  (-0.136191 0.0999908 0)
  (0.63994 0.39674 0)
  (-0.247177 0.176445 0)
  (-0.0369504 0.127826 0)
  (-0.0583405 0.0917352 0)
  (-0.0625511 0.0565819 0)
  (-0.0595702 0.0150735 0)
  (-0.041475 -0.0346659 0)
  (-0.0218041 -0.0808258 0)
  (-0.00298276 -0.114519 0)
  (0.0132949 -0.133107 0)
  (0.0258098 -0.13702 0)
  (0.035569 -0.129795 0)
  (0.0431236 -0.113839 0)
  (0.0494276 -0.0919823 0)
  (0.0556869 -0.0670328 0)
  (0.0637781 -0.0423106 0)
  (0.0763856 -0.0239761 0)
  (0.0871944 -0.0238725 0)
  (0.088035 -0.0330065 0)
  (0.0808461 -0.0338384 0)
  (0.0720057 -0.030303 0)
  (0.0650258 -0.0256257 0)
  (0.0599599 -0.0201644 0)
  (0.0571298 -0.0139506 0)
  (0.057214 -0.00781288 0)
  (0.0598302 -0.00483223 0)
  (0.0627194 -0.00362669 0)
  (0.0653888 -0.00255499 0)
  (0.067702 -0.000549311 0)
  (0.0691926 0.00287509 0)
  (0.0686389 0.0077652 0)
  (0.0655079 0.0142772 0)
  (0.0590993 0.0231387 0)
  (0.0514471 0.0395 0)
  (0.0398315 0.0589532 0)
  (0.068205 0.0801746 0)
  (-0.0356384 0.112211 0)
  (0.0478547 0.0269779 0)
  (-0.0687584 -0.0375291 0)
  (-0.286293 -0.0611586 0)
  (0.729632 0.442511 0)
  (-0.28648 0.195656 0)
  (-0.00682162 0.122129 0)
  (-0.00961877 0.0896711 0)
  (-0.000587784 0.0526883 0)
  (0.0222037 0.00146982 0)
  (0.0512586 -0.0547468 0)
  (0.0706882 -0.098619 0)
  (0.0825118 -0.127401 0)
  (0.0875593 -0.14135 0)
  (0.0873442 -0.142088 0)
  (0.083636 -0.132313 0)
  (0.0780136 -0.114907 0)
  (0.0721222 -0.0928702 0)
  (0.0673765 -0.0690208 0)
  (0.0650086 -0.0465533 0)
  (0.0656767 -0.0296427 0)
  (0.0660691 -0.0232815 0)
  (0.0622591 -0.0237155 0)
  (0.0545277 -0.0239572 0)
  (0.0459327 -0.0221274 0)
  (0.0388624 -0.0192486 0)
  (0.033858 -0.0158401 0)
  (0.0312201 -0.0120777 0)
  (0.0311119 -0.00876527 0)
  (0.0330797 -0.00744959 0)
  (0.0359982 -0.00712168 0)
  (0.0394006 -0.00640993 0)
  (0.0430543 -0.00423193 0)
  (0.0467843 0.000268052 0)
  (0.0496594 0.00710414 0)
  (0.0509409 0.0159006 0)
  (0.0509478 0.0269794 0)
  (0.0512118 0.0422103 0)
  (0.048897 0.06116 0)
  (0.0763825 0.0857461 0)
  (0.048573 0.104724 0)
  (0.0976929 0.0694113 0)
  (0.122311 0.0452476 0)
  (-0.137973 -0.00960404 0)
  (0.786938 0.484343 0)
  (-0.30439 0.179917 0)
  (0.0245474 0.0655399 0)
  (0.0584842 0.0544039 0)
  (0.0857913 0.026312 0)
  (0.13053 -0.0291743 0)
  (0.15867 -0.0774593 0)
  (0.17168 -0.111198 0)
  (0.171759 -0.130542 0)
  (0.161753 -0.137007 0)
  (0.144942 -0.132592 0)
  (0.124479 -0.119858 0)
  (0.103093 -0.101649 0)
  (0.0830538 -0.0806394 0)
  (0.0658907 -0.0590257 0)
  (0.0525721 -0.0394384 0)
  (0.043246 -0.0248895 0)
  (0.0361573 -0.0176705 0)
  (0.0289376 -0.0159152 0)
  (0.0210241 -0.0156854 0)
  (0.0135396 -0.0149076 0)
  (0.0075701 -0.0136644 0)
  (0.00348542 -0.0122409 0)
  (0.00147975 -0.0107979 0)
  (0.00156988 -0.00984448 0)
  (0.00328973 -0.0099662 0)
  (0.00592731 -0.0104857 0)
  (0.00920086 -0.0104257 0)
  (0.0131364 -0.00883427 0)
  (0.0178627 -0.0046236 0)
  (0.0246009 0.00311892 0)
  (0.0304173 0.0127522 0)
  (0.036103 0.0238948 0)
  (0.0435724 0.0373914 0)
  (0.0510386 0.0528478 0)
  (0.0762602 0.0728252 0)
  (0.0886441 0.0799209 0)
  (0.125569 0.0517087 0)
  (0.168104 0.0426459 0)
  (-0.031494 0.0968068 0)
  (0.895144 0.483542 0)
  (-0.0553974 0.158166 0)
  (0.120374 -0.0239271 0)
  (0.210439 -0.0611941 0)
  (0.2573 -0.0757408 0)
  (0.281386 -0.0926241 0)
  (0.288866 -0.10781 0)
  (0.279551 -0.117048 0)
  (0.255825 -0.119295 0)
  (0.222081 -0.114847 0)
  (0.183109 -0.104624 0)
  (0.143047 -0.0899932 0)
  (0.10519 -0.0728795 0)
  (0.0718493 -0.0550655 0)
  (0.0441162 -0.0377043 0)
  (0.0229565 -0.022863 0)
  (0.00823289 -0.0128552 0)
  (-0.00175443 -0.00838742 0)
  (-0.0091931 -0.00780395 0)
  (-0.0156495 -0.00838565 0)
  (-0.0211672 -0.00886889 0)
  (-0.0254809 -0.00917999 0)
  (-0.028497 -0.00945803 0)
  (-0.0301857 -0.00984482 0)
  (-0.030656 -0.0105629 0)
  (-0.0302871 -0.0117088 0)
  (-0.0294931 -0.0129257 0)
  (-0.0283902 -0.0137108 0)
  (-0.0267985 -0.0135387 0)
  (-0.0242715 -0.0117875 0)
  (-0.0196617 -0.00765468 0)
  (-0.00913056 -0.000468705 0)
  (-0.000772427 0.00823684 0)
  (0.0105566 0.0168465 0)
  (0.0221617 0.0244622 0)
  (0.0433485 0.0331187 0)
  (0.0617202 0.0252184 0)
  (0.0803338 -0.00585665 0)
  (0.141777 0.0454009 0)
  (-0.456954 0.222709 0)
  (1.04771 0.427388 0)
  (0.496398 0.278925 0)
  (0.515682 0.172711 0)
  (0.550617 0.0933949 0)
  (0.529662 0.0384759 0)
  (0.480836 -0.00455183 0)
  (0.424467 -0.0354897 0)
  (0.363017 -0.053833 0)
  (0.297418 -0.0611173 0)
  (0.231165 -0.0600068 0)
  (0.168378 -0.0532191 0)
  (0.112023 -0.0428595 0)
  (0.0642964 -0.0311863 0)
  (0.0256331 -0.0198783 0)
  (-0.00498384 -0.00976304 0)
  (-0.0244121 -0.0036324 0)
  (-0.0354654 -0.00117237 0)
  (-0.0421304 -0.000973773 0)
  (-0.0469281 -0.00200295 0)
  (-0.0512057 -0.00338424 0)
  (-0.0550482 -0.00473341 0)
  (-0.0583998 -0.00602591 0)
  (-0.0612566 -0.0072966 0)
  (-0.0637016 -0.00858509 0)
  (-0.0659356 -0.00992277 0)
  (-0.0682979 -0.0112342 0)
  (-0.0711487 -0.0122358 0)
  (-0.0747914 -0.0125107 0)
  (-0.0795554 -0.0115309 0)
  (-0.0859381 -0.00861369 0)
  (-0.09465 -0.00293152 0)
  (-0.105368 0.00606755 0)
  (-0.116452 0.0179844 0)
  (-0.133906 0.0331329 0)
  (-0.161452 0.0512672 0)
  (-0.201506 0.0702718 0)
  (-0.257953 0.0847906 0)
  (-0.321347 0.0918141 0)
  (-0.39278 0.0921152 0)
  (-0.661091 0.0862795 0)
  (-0.177397 -0.0210513 0)
  (0.0994838 -0.037658 0)
  (0.176306 -0.0566139 0)
  (0.162651 -0.0485693 0)
  (0.142532 -0.0349317 0)
  (0.11762 -0.0225156 0)
  (0.0847358 -0.0118883 0)
  (0.0483107 -0.00368536 0)
  (0.0129749 0.00191786 0)
  (-0.0193185 0.00538258 0)
  (-0.0420776 0.0064556 0)
  (-0.0583808 0.00630394 0)
  (-0.0683648 0.00501455 0)
  (-0.0734975 0.00271687 0)
  (-0.0764273 0.000193806 0)
  (-0.0784904 -0.00238022 0)
  (-0.0804842 -0.00498513 0)
  (-0.0827502 -0.00740611 0)
  (-0.0854524 -0.00940527 0)
  (-0.0884031 -0.0109308 0)
  (-0.0914915 -0.0120697 0)
  (-0.0948224 -0.0128546 0)
  (-0.0985584 -0.0133027 0)
  (-0.10287 -0.0133378 0)
  (-0.107852 -0.0127227 0)
  (-0.113454 -0.0110643 0)
  (-0.119424 -0.00785482 0)
  (-0.12529 -0.00253166 0)
  (-0.130325 0.0052584 0)
  (-0.13415 0.0158811 0)
  (-0.137205 0.0303576 0)
  (-0.140079 0.0491451 0)
  (-0.143915 0.0711446 0)
  (-0.149343 0.0916787 0)
  (-0.152805 0.0993147 0)
  (-0.134873 0.0721682 0)
  (-0.0806797 -0.0316238 0)
  (-0.288976 -0.226235 0)
  (0.0368483 0.197833 0)
  (0.011656 0.0631981 0)
  (-0.0336375 0.0116402 0)
  (-0.0579499 0.0109935 0)
  (-0.0767743 0.0173332 0)
  (-0.0904918 0.0222106 0)
  (-0.0993191 0.0261194 0)
  (-0.105874 0.0292382 0)
  (-0.110433 0.0309676 0)
  (-0.11326 0.0311353 0)
  (-0.114228 0.0304245 0)
  (-0.113901 0.0300012 0)
  (-0.112553 0.0300027 0)
  (-0.110832 0.0305387 0)
  (-0.109283 0.0318489 0)
  (-0.108109 0.0337426 0)
  (-0.107434 0.0357528 0)
  (-0.10729 0.0373268 0)
  (-0.107624 0.037892 0)
  (-0.108427 0.037165 0)
  (-0.109669 0.0359062 0)
  (-0.111336 0.0342937 0)
  (-0.113402 0.0324295 0)
  (-0.115816 0.0304122 0)
  (-0.118479 0.028354 0)
  (-0.121213 0.0263694 0)
  (-0.123729 0.02454 0)
  (-0.125474 0.0231239 0)
  (-0.125534 0.023562 0)
  (-0.122574 0.027171 0)
  (-0.114966 0.0351497 0)
  (-0.101555 0.0486224 0)
  (-0.0827325 0.0673609 0)
  (-0.0597687 0.0862906 0)
  (-0.0357796 0.0970168 0)
  (0.00792411 0.0793108 0)
  (0.144242 0.00316669 0)
  (-0.207369 -0.138968 0)
  (-0.0948613 -0.347903 0)
  (-0.448107 -0.138661 0)
  (-0.334811 0.0446533 0)
  (-0.293404 -0.044038 0)
  (-0.252602 -0.0507482 0)
  (-0.241445 -0.043545 0)
  (-0.233423 -0.0366531 0)
  (-0.22395 -0.0323458 0)
  (-0.212025 -0.0302692 0)
  (-0.198029 -0.0305763 0)
  (-0.183049 -0.0338129 0)
  (-0.16857 -0.0398702 0)
  (-0.15581 -0.0478293 0)
  (-0.145332 -0.0564543 0)
  (-0.137182 -0.065309 0)
  (-0.131155 -0.0741928 0)
  (-0.126824 -0.082755 0)
  (-0.123733 -0.0906198 0)
  (-0.121555 -0.0973305 0)
  (-0.120104 -0.102373 0)
  (-0.119333 -0.105344 0)
  (-0.119267 -0.10605 0)
  (-0.119878 -0.105249 0)
  (-0.120993 -0.103155 0)
  (-0.122445 -0.099941 0)
  (-0.124044 -0.0956959 0)
  (-0.125535 -0.0904125 0)
  (-0.126568 -0.0839618 0)
  (-0.126691 -0.0760625 0)
  (-0.125301 -0.0665373 0)
  (-0.121263 -0.0559966 0)
  (-0.1124 -0.0442792 0)
  (-0.0957403 -0.0308722 0)
  (-0.0691865 -0.0147956 0)
  (-0.0343222 0.00467296 0)
  (0.0254252 0.0297581 0)
  (0.0756477 0.0302319 0)
  (0.124185 0.00834499 0)
  (0.177043 -0.0326211 0)
  (-0.176561 -0.100979 0)
)
;

boundaryField
{
  floor
  {
    type noSlip;
  }
  ceiling
  {
    type noSlip;
  }
  sWall
  {
    type noSlip;
  }
  nWall
  {
    type noSlip;
  }
  sideWalls
  {
    type empty;
  }
  glass1
  {
    type noSlip;
  }
  glass2
  {
    type noSlip;
  }
  sun
  {
    type noSlip;
  }
  heatsource1
  {
    type noSlip;
  }
  heatsource2
  {
    type noSlip;
  }
  Table_master
  {
    type noSlip;
  }
  Table_slave
  {
    type noSlip;
  }
  inlet
  {
    type fixedValue;
    value uniform (0.277164 -0.114805 0);
  }
  outlet
  {
    type zeroGradient;
  }
} 	// ************************************************************************* //

