// -*- C++ -*-
// File generated by PyFoam - sorry for the ugliness

FoamFile
{
 version 2.0;
 format ascii;
 class volScalarField;
 location "2900";
 object T;
}

dimensions [ 0 0 0 1 0 0 0 ];

internalField nonuniform List<scalar> 459
(
  302.675
  302.395
  302.38
  302.376
  302.371
  302.367
  302.362
  302.356
  302.347
  302.336
  302.326
  302.318
  302.314
  302.316
  302.325
  302.46
  302.434
  302.424
  302.427
  302.432
  302.438
  302.443
  302.448
  302.454
  302.459
  302.464
  302.469
  302.474
  302.479
  302.484
  302.489
  302.495
  302.502
  302.527
  302.86
  302.436
  302.408
  302.408
  302.41
  302.409
  302.405
  302.397
  302.38
  302.357
  302.333
  302.313
  302.302
  302.298
  302.3
  302.3
  302.3
  302.463
  302.414
  302.406
  302.41
  302.417
  302.423
  302.426
  302.428
  302.431
  302.433
  302.434
  302.436
  302.438
  302.44
  302.443
  302.448
  302.456
  302.467
  302.508
  303.055
  302.489
  302.442
  302.45
  302.462
  302.47
  302.472
  302.462
  302.433
  302.392
  302.35
  302.317
  302.297
  302.291
  302.294
  302.299
  302.302
  302.389
  302.386
  302.395
  302.409
  302.423
  302.434
  302.434
  302.435
  302.435
  302.435
  302.435
  302.435
  302.435
  302.436
  302.437
  302.441
  302.446
  302.457
  302.5
  303.252
  302.557
  302.481
  302.494
  302.52
  302.545
  302.559
  302.547
  302.501
  302.433
  302.368
  302.318
  302.29
  302.284
  302.29
  302.3
  302.31
  302.327
  302.347
  302.374
  302.403
  302.429
  302.452
  302.469
  302.484
  302.496
  302.507
  302.516
  302.523
  302.529
  302.534
  302.537
  302.538
  302.506
  302.479
  302.467
  302.502
  303.443
  302.643
  302.529
  302.537
  302.576
  302.619
  302.651
  302.63
  302.56
  302.462
  302.375
  302.313
  302.281
  302.275
  302.287
  302.307
  302.329
  302.353
  302.382
  302.415
  302.448
  302.478
  302.503
  302.524
  302.542
  302.556
  302.568
  302.577
  302.583
  302.584
  302.583
  302.578
  302.569
  302.544
  302.51
  302.484
  302.499
  302.598
  302.643
  302.65
  303.617
  302.757
  302.615
  302.603
  302.643
  302.703
  302.727
  302.678
  302.58
  302.464
  302.362
  302.293
  302.262
  302.264
  302.288
  302.322
  302.359
  302.396
  302.434
  302.472
  302.508
  302.538
  302.564
  302.583
  302.599
  302.612
  302.621
  302.627
  302.63
  302.627
  302.62
  302.61
  302.595
  302.572
  302.538
  302.506
  302.502
  302.544
  302.564
  302.605
  303.779
  302.938
  302.8
  302.776
  302.792
  302.826
  302.786
  302.681
  302.543
  302.407
  302.302
  302.242
  302.229
  302.252
  302.299
  302.355
  302.409
  302.459
  302.503
  302.543
  302.576
  302.604
  302.625
  302.641
  302.653
  302.662
  302.667
  302.67
  302.669
  302.663
  302.651
  302.636
  302.619
  302.596
  302.566
  302.534
  302.52
  302.532
  302.545
  302.579
  304.012
  303.387
  303.239
  303.159
  303.089
  302.957
  302.772
  302.569
  302.385
  302.249
  302.174
  302.16
  302.193
  302.258
  302.339
  302.419
  302.488
  302.543
  302.585
  302.618
  302.644
  302.664
  302.679
  302.69
  302.697
  302.701
  302.703
  302.702
  302.698
  302.691
  302.68
  302.664
  302.647
  302.627
  302.604
  302.581
  302.575
  302.595
  302.621
  302.774
  304.348
  304.052
  303.755
  303.442
  303.064
  302.657
  302.317
  302.083
  301.961
  301.938
  301.99
  302.09
  302.205
  302.322
  302.437
  302.53
  302.589
  302.63
  302.66
  302.683
  302.7
  302.713
  302.722
  302.727
  302.73
  302.731
  302.73
  302.727
  302.724
  302.72
  302.717
  302.717
  302.72
  302.729
  302.747
  302.777
  302.819
  302.86
  302.885
  302.949
  293.355
  295.245
  297.228
  298.704
  299.774
  300.577
  301.188
  301.645
  301.986
  302.248
  302.402
  302.509
  302.587
  302.64
  302.677
  302.702
  302.72
  302.734
  302.744
  302.751
  302.755
  302.757
  302.758
  302.758
  302.758
  302.758
  302.758
  302.759
  302.761
  302.763
  302.769
  302.78
  302.797
  302.822
  302.852
  302.881
  302.902
  302.924
  294.548
  297.001
  299.193
  300.306
  301.011
  301.506
  301.862
  302.13
  302.333
  302.481
  302.578
  302.644
  302.689
  302.719
  302.74
  302.754
  302.763
  302.77
  302.774
  302.777
  302.779
  302.78
  302.781
  302.781
  302.782
  302.783
  302.783
  302.785
  302.786
  302.789
  302.793
  302.801
  302.813
  302.83
  302.851
  302.874
  302.873
  302.905
  298.286
  298.21
  298.205
  300.524
  301.448
  301.846
  302.089
  302.274
  302.419
  302.532
  302.618
  302.682
  302.726
  302.756
  302.776
  302.79
  302.799
  302.804
  302.808
  302.81
  302.811
  302.811
  302.811
  302.811
  302.81
  302.809
  302.808
  302.808
  302.807
  302.807
  302.807
  302.807
  302.809
  302.812
  302.818
  302.831
  302.842
  302.85
  302.854
  302.893
)
;

boundaryField
{
  floor
  {
    type wallHeatTransfer;
    Tinf uniform 305.2;
    alphaWall uniform 0.24;
    value nonuniform List<scalar> 29
(
  302.599
  302.951
  302.869
  302.826
  302.829
  302.844
  302.862
  302.886
  302.911
  302.937
  302.962
  302.986
  303.009
  303.031
  303.053
  303.074
  303.096
  303.12
  303.138
  303.191
  303.191
  303.071
  303.011
  302.979
  302.599
  302.951
  302.934
  302.691
  302.558
)
;
  }
  ceiling
  {
    type wallHeatTransfer;
    Tinf uniform 303.2;
    alphaWall uniform 0.24;
    value nonuniform List<scalar> 43
(
  298.607
  298.521
  298.505
  300.676
  301.552
  301.928
  302.159
  302.335
  302.473
  302.582
  302.666
  302.729
  302.774
  302.805
  302.827
  302.842
  302.853
  302.86
  302.864
  302.867
  302.869
  302.869
  302.868
  302.867
  302.866
  302.864
  302.862
  302.86
  302.858
  302.856
  302.854
  302.853
  302.852
  302.853
  302.856
  302.865
  302.875
  302.883
  302.888
  302.926
  304.297
  304.018
  295.06
)
;
  }
  sWall
  {
    type wallHeatTransfer;
    Tinf uniform 315.2;
    alphaWall uniform 0.36;
    value uniform 299.896;
  }
  nWall
  {
    type wallHeatTransfer;
    Tinf uniform 307.2;
    alphaWall uniform 0.36;
    value nonuniform List<scalar> 6
(
  303.456
  303.392
  303.296
  303.526
  303.504
  303.545
)
;
  }
  sideWalls
  {
    type empty;
  }
  glass1
  {
    type wallHeatTransfer;
    Tinf uniform 315.2;
    alphaWall uniform 4.3;
    value nonuniform List<scalar> 9
(
  311.113
  310.427
  310.001
  309.681
  309.416
  309.178
  309.01
  309.097
  309.35
)
;
  }
  glass2
  {
    type wallHeatTransfer;
    Tinf uniform 307.2;
    alphaWall uniform 4.3;
    value nonuniform List<scalar> 2
(
  305.446
  305.588
)
;
  }
  sun
  {
    type wallHeatTransfer;
    Tinf uniform 305.2;
    alphaWall uniform 0.24;
    value nonuniform List<scalar> 14
(
  302.931
  302.66
  302.642
  302.629
  302.616
  302.605
  302.593
  302.581
  302.569
  302.559
  302.551
  302.549
  302.555
  302.571
)
;
  }
  heatsource1
  {
    type fixedGradient;
    gradient uniform 0;
  }
  heatsource2
  {
    type fixedGradient;
    gradient uniform 0;
  }
  Table_master
  {
    type zeroGradient;
  }
  Table_slave
  {
    type zeroGradient;
  }
  inlet
  {
    type fixedValue;
    value uniform 290.15;
  }
  outlet
  {
    type zeroGradient;
  }
} 	// ************************************************************************* //

