/*--------------------------------*- C++ -*----------------------------------*\
  =========                 |
  \\      /  F ield         | OpenFOAM: The Open Source CFD Toolbox
   \\    /   O peration     | Website:  https://openfoam.org
    \\  /    A nd           | Version:  6
     \\/     M anipulation  |
\*---------------------------------------------------------------------------*/
FoamFile
{
    version     2.0;
    format      ascii;
    class       volScalarField;
    location    "3000";
    object      alphat;
}
// * * * * * * * * * * * * * * * * * * * * * * * * * * * * * * * * * * * * * //

dimensions      [1 -1 -1 0 0 0 0];

internalField   nonuniform List<scalar> 
459
(
0.001325
0.00145268
0.00148105
0.00155428
0.00162295
0.00168809
0.00175314
0.00181258
0.00185228
0.00186546
0.00184628
0.00179118
0.00169904
0.00157519
0.00143506
0.00059521
0.000717734
0.00080705
0.000804835
0.000777253
0.000740442
0.000693597
0.000647155
0.000605123
0.00056791
0.000535046
0.000505923
0.000480052
0.000456896
0.000435627
0.00041522
0.000394293
0.000381986
0.000350745
0.00180197
0.00452545
0.00437949
0.00511366
0.00583727
0.00654913
0.00715067
0.00762425
0.0080411
0.00836797
0.00856269
0.00858194
0.00835981
0.0077265
0.00598984
0.0014745
0.000857587
0.000631983
0.00132611
0.00184894
0.00223186
0.00243743
0.00242712
0.00193134
0.00165965
0.001467
0.00131992
0.0012034
0.00110872
0.00102777
0.000952253
0.000878668
0.000812852
0.000753878
0.000901031
0.00046783
0.00219469
0.00618493
0.00546922
0.00684455
0.00754305
0.0080633
0.00846581
0.00880729
0.00916764
0.00952987
0.009847
0.0100652
0.0101222
0.00991159
0.00913324
0.00691305
0.00151166
0.00122131
0.00178352
0.00230747
0.0027879
0.00311706
0.00303195
0.0009878
0.000870218
0.000775808
0.000699754
0.000637922
0.000587113
0.000545026
0.000510205
0.000482038
0.000519939
0.000600759
0.001024
0.00054823
0.00256798
0.00786028
0.00552936
0.00725105
0.00785422
0.00807965
0.00824544
0.00845597
0.00876805
0.0091612
0.00957252
0.00993597
0.0101793
0.0102126
0.00997029
0.00910076
0.00619581
0.00178156
0.00221142
0.00286601
0.00351563
0.00403657
0.00435018
0.00406317
0.00111172
0.00100914
0.000935318
0.000878524
0.000829893
0.000786006
0.00074382
0.000699789
0.000649191
0.000609857
0.00063117
0.00121111
0.00060713
0.00294616
0.00998509
0.00611604
0.00704499
0.00780043
0.00787712
0.0078519
0.00800865
0.00829508
0.00871365
0.00918174
0.00961022
0.00989355
0.0099689
0.00982975
0.00943678
0.00856294
0.0071053
0.00659686
0.00643579
0.00638355
0.00634084
0.00624976
0.00596992
0.00498731
0.00450975
0.00422655
0.00400612
0.0037779
0.00345377
0.00303639
0.00254546
0.00201263
0.00148941
0.00110415
0.00117229
0.000797879
0.000745454
0.00088947
0.000995952
0.00334522
0.0122875
0.00836165
0.00718291
0.00773315
0.00785892
0.00780416
0.00790402
0.00812969
0.00851707
0.00901691
0.00949577
0.0098034
0.00984896
0.00964556
0.00929445
0.0089071
0.00854462
0.00834049
0.00816697
0.0079503
0.00769365
0.00740306
0.007051
0.00656512
0.00614014
0.00577228
0.0054289
0.00508844
0.00472211
0.00427374
0.00372794
0.00308908
0.00239911
0.00180423
0.00133873
0.0010689
0.000947791
0.00136798
0.00104467
0.00369893
0.0138449
0.0114966
0.00922667
0.00884126
0.00851428
0.00817597
0.00804377
0.00819148
0.00860644
0.0091758
0.00970974
0.0100181
0.00999688
0.00968549
0.00927251
0.0090022
0.00895872
0.00896687
0.00882736
0.00851706
0.00809872
0.00761833
0.00709957
0.00656889
0.00609261
0.0056715
0.00529136
0.00494917
0.00465045
0.00439377
0.00402897
0.00352986
0.00293257
0.00238402
0.00188133
0.00156245
0.00148156
0.001509
0.0011909
0.00375714
0.0120581
0.0109005
0.0100763
0.00928538
0.00850126
0.0080244
0.00797677
0.0083403
0.00899302
0.00972745
0.0102977
0.0105121
0.0103126
0.00981541
0.00931818
0.00911699
0.00916499
0.00906665
0.008693
0.00812656
0.00745892
0.00676605
0.00611773
0.0055633
0.00511361
0.00474724
0.00444952
0.00421927
0.00406175
0.00398035
0.00393609
0.00369524
0.00331641
0.00300711
0.00288606
0.00305645
0.00357161
0.0045849
0.00180155
0.00364676
0.0043034
0.00474319
0.00485585
0.00511417
0.00568099
0.00657188
0.00772231
0.00897888
0.0101317
0.0109596
0.0112815
0.0110558
0.0104192
0.00968926
0.00924668
0.00898563
0.00870414
0.00822404
0.00753233
0.00672646
0.00592052
0.005209
0.00463977
0.00420689
0.00387621
0.00361471
0.00340216
0.00322588
0.00307591
0.00294392
0.00282929
0.00274421
0.00269186
0.00269046
0.00272695
0.00272679
0.00262425
0.00243931
0.00167145
0.00173032
0.00438467
0.00792123
0.0102084
0.0117105
0.0126244
0.0129994
0.0129155
0.0124624
0.0117363
0.0107158
0.0096803
0.0088913
0.00835495
0.00783167
0.00718394
0.00642234
0.00563012
0.00488929
0.00426154
0.00378186
0.00343506
0.00318476
0.00299969
0.00286026
0.00275613
0.00268271
0.00263924
0.00262861
0.00264902
0.00268955
0.00274842
0.0028197
0.00288177
0.00290635
0.0028955
0.00256655
0.00138125
0.00261528
0.00805669
0.0110389
0.0118057
0.0120315
0.0118461
0.011282
0.0104772
0.00956587
0.00867312
0.0078325
0.00713026
0.00655714
0.00599558
0.00538928
0.00477776
0.00421256
0.00372905
0.00333975
0.00303887
0.0028098
0.00264498
0.00253086
0.00245842
0.00242223
0.00241766
0.00243864
0.00248099
0.00255134
0.00264458
0.00275689
0.00288139
0.00300343
0.00310672
0.00319122
0.00320423
0.00221401
0.00142619
0.0023137
0.002455
0.00255642
0.00273667
0.00262179
0.00251899
0.00243491
0.0023141
0.00215176
0.00195744
0.00174144
0.00152252
0.00132694
0.00117042
0.0010531
0.000966964
0.000903391
0.000856285
0.000822229
0.000799465
0.000786733
0.000782999
0.000786928
0.000796733
0.000811936
0.000832349
0.00085804
0.00088937
0.000927132
0.000972235
0.00102421
0.00108361
0.00115084
0.00122634
0.00130978
0.00140568
0.00143174
0.00130424
0.00121522
0.0013781
)
;

boundaryField
{
    floor
    {
        type            compressible::alphatWallFunction;
        Prt             0.85;
        value           nonuniform List<scalar> 
29
(
0.000202191
8.36241e-05
0.000101767
0.000114755
0.000114435
0.000110442
0.000105087
9.8225e-05
9.13666e-05
8.51075e-05
7.95215e-05
7.45506e-05
7.01138e-05
6.61456e-05
6.25708e-05
5.92672e-05
5.60782e-05
5.27871e-05
5.08412e-05
4.58649e-05
4.58643e-05
6.42624e-05
7.65504e-05
8.54093e-05
0.000202189
8.36231e-05
8.9113e-05
0.00017305
0.000248435
)
;
    }
    ceiling
    {
        type            compressible::alphatWallFunction;
        Prt             0.85;
        value           nonuniform List<scalar> 
43
(
0.000317471
0.000335529
0.000348426
0.00037137
0.000356925
0.000343912
0.000333223
0.000317782
0.00029689
0.000271653
0.000243274
0.00021411
0.000187658
0.00016617
0.000149848
0.000137731
0.000128708
0.000121973
0.000117077
0.00011379
0.000111948
0.000111406
0.000111976
0.000113395
0.000115592
0.000118534
0.000122225
0.000126708
0.000132087
0.000138478
0.000145799
0.000154114
0.000163463
0.000173887
0.000185322
0.000198365
0.000201891
0.000184567
0.000172362
0.000194636
0.000484516
0.00056412
0.000355643
)
;
    }
    sWall
    {
        type            compressible::alphatWallFunction;
        Prt             0.85;
        value           uniform 0.000316199;
    }
    nWall
    {
        type            compressible::alphatWallFunction;
        Prt             0.85;
        value           nonuniform List<scalar> 6(0.000141475 0.000148314 0.000168636 0.000194707 0.000200792 0.000194287);
    }
    sideWalls
    {
        type            empty;
    }
    glass1
    {
        type            compressible::alphatWallFunction;
        Prt             0.85;
        value           nonuniform List<scalar> 9(0.000182514 0.000245508 0.000296134 0.000343454 0.000390724 0.000439971 0.000483168 0.000490383 0.000477228);
    }
    glass2
    {
        type            compressible::alphatWallFunction;
        Prt             0.85;
        value           nonuniform List<scalar> 2(0.000249151 0.000232109);
    }
    sun
    {
        type            compressible::alphatWallFunction;
        Prt             0.85;
        value           nonuniform List<scalar> 
14
(
0.000187273
0.000204574
0.000208398
0.000218232
0.000227406
0.000236071
0.000244685
0.000252526
0.000257748
0.000259477
0.000256958
0.000249704
0.000237519
0.000221027
)
;
    }
    heatsource1
    {
        type            compressible::alphatWallFunction;
        Prt             0.85;
        value           nonuniform List<scalar> 3(0.000105971 0.000126747 0.00014185);
    }
    heatsource2
    {
        type            compressible::alphatWallFunction;
        Prt             0.85;
        value           nonuniform List<scalar> 4(0.000207689 0.000122184 0.000122183 0.000212685);
    }
    Table_master
    {
        type            compressible::alphatWallFunction;
        Prt             0.85;
        value           nonuniform List<scalar> 9(0.000140697 0.000123991 0.000110385 9.92789e-05 9.01419e-05 8.25527e-05 7.62048e-05 7.09064e-05 6.65874e-05);
    }
    Table_slave
    {
        type            compressible::alphatWallFunction;
        Prt             0.85;
        value           nonuniform List<scalar> 9(0.000158057 0.000143707 0.000133274 0.000125183 0.000118205 0.000111866 0.000105733 9.92862e-05 9.18171e-05);
    }
    inlet
    {
        type            fixedValue;
        value           uniform 1.94e-05;
    }
    outlet
    {
        type            zeroGradient;
    }
}


// ************************************************************************* //
