/*--------------------------------*- C++ -*----------------------------------*\
  =========                 |
  \\      /  F ield         | OpenFOAM: The Open Source CFD Toolbox
   \\    /   O peration     | Website:  https://openfoam.org
    \\  /    A nd           | Version:  6
     \\/     M anipulation  |
\*---------------------------------------------------------------------------*/
FoamFile
{
    version     2.0;
    format      ascii;
    class       volScalarField;
    location    "3000";
    object      epsilon;
}
// * * * * * * * * * * * * * * * * * * * * * * * * * * * * * * * * * * * * * //

dimensions      [0 2 -3 0 0 0 0];

internalField   nonuniform List<scalar> 
459
(
0.000522523
0.000686692
0.000727611
0.000840934
0.00095734
0.00107727
0.00120659
0.00133345
0.00142288
0.00145331
0.00140881
0.00128629
0.00109778
0.00087481
0.000661554
4.72656e-05
8.28532e-05
0.000117781
0.000116818
0.000105221
9.09723e-05
7.47793e-05
6.07447e-05
4.96633e-05
4.10548e-05
3.43338e-05
2.90285e-05
2.48005e-05
2.13829e-05
1.85345e-05
1.60508e-05
1.3745e-05
1.24986e-05
9.67836e-06
0.00131684
0.00186068
0.00065042
0.000632875
0.000668876
0.000726276
0.000808655
0.000908976
0.000997048
0.00104517
0.00103438
0.000961416
0.000836105
0.000686015
0.000571823
0.000717481
0.000141159
5.65843e-05
0.000133662
0.000142903
0.000130495
0.000111185
9.29688e-05
8.3558e-05
6.73616e-05
5.31462e-05
4.19531e-05
3.33688e-05
2.68105e-05
2.17929e-05
1.79609e-05
1.51331e-05
1.3385e-05
1.26583e-05
3.42745e-05
2.29636e-05
0.00238381
0.00448928
0.000816008
0.000613672
0.000651443
0.000743152
0.000874165
0.00102582
0.00115196
0.0012183
0.00121046
0.00113316
0.000998686
0.000839985
0.000695572
0.000627954
0.000773158
0.000408098
0.000300354
0.000229632
0.000178654
0.000141091
0.000118667
0.000216012
0.000147691
0.000104649
7.67908e-05
5.81801e-05
4.53565e-05
3.62851e-05
2.97655e-05
2.51031e-05
1.89776e-05
1.60225e-05
6.68145e-05
3.69538e-05
0.00382653
0.00921045
0.00130666
0.000643691
0.000662375
0.000799662
0.00101212
0.001237
0.00139247
0.00145593
0.00143002
0.00132945
0.00116287
0.000973103
0.000802802
0.000688373
0.000668737
0.00126604
0.000718514
0.000433445
0.000290756
0.000209526
0.000159215
0.000135667
0.0003081
0.000230473
0.00018352
0.000152092
0.000128216
0.000108938
9.23269e-05
7.68851e-05
6.13854e-05
3.59722e-05
2.44252e-05
0.000118146
5.0194e-05
0.00578964
0.0162463
0.00259301
0.000820959
0.000740715
0.000944208
0.00132828
0.00162212
0.00176385
0.00178613
0.00171645
0.00156875
0.00135683
0.00111197
0.000873417
0.000675328
0.000538456
0.000482686
0.000392865
0.000309531
0.000242317
0.000190486
0.00015163
0.000125771
0.000120506
0.000110993
0.000101609
9.24623e-05
8.3107e-05
7.36361e-05
6.44279e-05
5.58325e-05
4.8001e-05
3.78187e-05
2.96935e-05
8.16092e-05
5.76024e-05
9.30084e-05
0.000158066
0.000221916
0.00849044
0.0239434
0.00579128
0.00169485
0.00126829
0.0016245
0.00213298
0.00232308
0.00233858
0.00226276
0.00211974
0.00190312
0.00161631
0.00128846
0.000966896
0.000698072
0.000508673
0.000397392
0.000325801
0.000267431
0.000215992
0.000173477
0.000141023
0.000119179
0.00010825
0.000102973
9.93417e-05
9.51928e-05
8.9333e-05
8.08114e-05
7.00391e-05
5.92016e-05
4.94814e-05
4.10118e-05
3.68386e-05
5.72752e-05
5.99365e-05
7.16931e-05
0.000295772
0.000256003
0.0114978
0.0284705
0.0116813
0.00538056
0.00401991
0.00401086
0.00379618
0.00350142
0.00321455
0.00295261
0.00267988
0.00234887
0.00194543
0.00150108
0.00107548
0.000730838
0.000497852
0.000363625
0.00028666
0.000231778
0.000186737
0.00015161
0.00012711
0.000112948
0.00010784
0.000108228
0.000110499
0.000112835
0.000114
0.000112161
0.000103292
9.11075e-05
7.92526e-05
6.93318e-05
6.70069e-05
7.93833e-05
0.000102149
0.000164677
0.000409716
0.000379186
0.0120778
0.0298056
0.0171856
0.0122927
0.00966285
0.00753172
0.00600402
0.00499005
0.00433097
0.00385891
0.00342107
0.00291363
0.00232278
0.00170341
0.00113614
0.000707416
0.000443739
0.000303363
0.00023116
0.000185052
0.000151276
0.000128153
0.000114762
0.000109746
0.000111395
0.000117649
0.000127026
0.00013921
0.00015438
0.000172457
0.00019218
0.000204072
0.000215729
0.000240406
0.000290426
0.000441959
0.000811063
0.00160654
0.00545385
0.00131541
0.0110816
0.0181569
0.0145878
0.0111757
0.00878448
0.00728659
0.00639055
0.0058548
0.00546238
0.00501738
0.0043849
0.00353395
0.00259393
0.00170951
0.00097076
0.000520941
0.000319931
0.000224636
0.000173611
0.000141494
0.000120567
0.000108506
0.000103726
0.000104812
0.000110614
0.000120447
0.00013441
0.000153493
0.000179499
0.0002151
0.000264004
0.000331464
0.000425123
0.000566241
0.000774427
0.00105876
0.00138923
0.00168775
0.00191268
0.00105251
0.00372546
0.00656812
0.00842066
0.00890598
0.00889336
0.00842488
0.00743553
0.00603619
0.00443696
0.00278711
0.00167472
0.000968804
0.00054913
0.000330917
0.000225802
0.000172407
0.000141971
0.000122738
0.000110417
0.00010351
0.000101118
0.00010253
0.000107258
0.000115223
0.000126832
0.000143063
0.000165613
0.000197235
0.000242226
0.000306684
0.000398246
0.000527482
0.000702795
0.000918908
0.0011494
0.00136476
0.00122281
0.000593916
0.00370543
0.00848151
0.00848108
0.00703144
0.00608617
0.00510045
0.00402076
0.00295776
0.00201229
0.00125552
0.000762529
0.000471992
0.000312906
0.000230977
0.000188911
0.000165445
0.000150457
0.000139733
0.000131632
0.00012555
0.000121594
0.000120208
0.000121674
0.000126454
0.00013527
0.00014918
0.000169697
0.000199048
0.000240454
0.000298338
0.00037876
0.000488327
0.000629949
0.000797099
0.000974162
0.00122782
0.000650495
0.000653674
0.00266488
0.0031811
0.00359164
0.00450981
0.00400212
0.00356362
0.00322639
0.00277466
0.00223394
0.00168362
0.00118654
0.000793443
0.000525507
0.000360726
0.000262817
0.000203489
0.000165951
0.00014133
0.000125135
0.00011503
0.000109622
0.000108069
0.000109704
0.000113856
0.000120498
0.000129816
0.00014221
0.000158363
0.000179402
0.000206877
0.00024186
0.000286428
0.000343126
0.000415197
0.000505866
0.000625375
0.000660868
0.000499609
0.000404379
0.00059036
)
;

boundaryField
{
    floor
    {
        Cmu             0.09;
        kappa           0.41;
        E               9.8;
        type            epsilonWallFunction;
        value           nonuniform List<scalar> 
29
(
0.000661554
4.72656e-05
8.28532e-05
0.000117781
0.000116818
0.000105221
9.09723e-05
7.47793e-05
6.07447e-05
4.96633e-05
4.10548e-05
3.43338e-05
2.90285e-05
2.48005e-05
2.13829e-05
1.85345e-05
1.60508e-05
1.3745e-05
1.24986e-05
9.67836e-06
9.67836e-06
2.29636e-05
3.69538e-05
5.0194e-05
0.000661554
4.72656e-05
5.65843e-05
0.000408098
0.00126604
)
;
    }
    ceiling
    {
        Cmu             0.09;
        kappa           0.41;
        E               9.8;
        type            epsilonWallFunction;
        value           nonuniform List<scalar> 
43
(
0.00266488
0.0031811
0.00359164
0.00450981
0.00400212
0.00356362
0.00322639
0.00277466
0.00223394
0.00168362
0.00118654
0.000793443
0.000525507
0.000360726
0.000262817
0.000203489
0.000165951
0.00014133
0.000125135
0.00011503
0.000109622
0.000108069
0.000109704
0.000113856
0.000120498
0.000129816
0.00014221
0.000158363
0.000179402
0.000206877
0.00024186
0.000286428
0.000343126
0.000415197
0.000505866
0.000625375
0.000660868
0.000499609
0.000404379
0.00059036
0.0110816
0.0181569
0.00370543
)
;
    }
    sWall
    {
        Cmu             0.09;
        kappa           0.41;
        E               9.8;
        type            epsilonWallFunction;
        value           uniform 0.00266488;
    }
    nWall
    {
        Cmu             0.09;
        kappa           0.41;
        E               9.8;
        type            epsilonWallFunction;
        value           nonuniform List<scalar> 6(0.000221916 0.000256003 0.000379186 0.000593916 0.000653674 0.00059036);
    }
    sideWalls
    {
        type            empty;
    }
    glass1
    {
        Cmu             0.09;
        kappa           0.41;
        E               9.8;
        type            epsilonWallFunction;
        value           nonuniform List<scalar> 9(0.000522523 0.00131684 0.00238381 0.00382653 0.00578964 0.00849044 0.0114978 0.0120778 0.0110816);
    }
    glass2
    {
        Cmu             0.09;
        kappa           0.41;
        E               9.8;
        type            epsilonWallFunction;
        value           nonuniform List<scalar> 2(0.00131541 0.00105251);
    }
    sun
    {
        Cmu             0.09;
        kappa           0.41;
        E               9.8;
        type            epsilonWallFunction;
        value           nonuniform List<scalar> 
14
(
0.000522523
0.000686692
0.000727611
0.000840934
0.00095734
0.00107727
0.00120659
0.00133345
0.00142288
0.00145331
0.00140881
0.00128629
0.00109778
0.00087481
)
;
    }
    heatsource1
    {
        Cmu             0.09;
        kappa           0.41;
        E               9.8;
        type            epsilonWallFunction;
        value           nonuniform List<scalar> 3(9.30084e-05 0.000158066 0.000221916);
    }
    heatsource2
    {
        Cmu             0.09;
        kappa           0.41;
        E               9.8;
        type            epsilonWallFunction;
        value           nonuniform List<scalar> 4(0.000717481 0.000141159 0.000141159 0.000773158);
    }
    Table_master
    {
        Cmu             0.09;
        kappa           0.41;
        E               9.8;
        type            epsilonWallFunction;
        value           nonuniform List<scalar> 9(0.000216012 0.000147691 0.000104649 7.67908e-05 5.81801e-05 4.53565e-05 3.62851e-05 2.97655e-05 2.51031e-05);
    }
    Table_slave
    {
        Cmu             0.09;
        kappa           0.41;
        E               9.8;
        type            epsilonWallFunction;
        value           nonuniform List<scalar> 9(0.0003081 0.000230473 0.00018352 0.000152092 0.000128216 0.000108938 9.23269e-05 7.68851e-05 6.13854e-05);
    }
    inlet
    {
        type            turbulentMixingLengthDissipationRateInlet;
        mixingLength    0.01;
        phi             phi;
        k               k;
        value           uniform 0.000101881;
    }
    outlet
    {
        type            zeroGradient;
    }
}


// ************************************************************************* //
