/*--------------------------------*- C++ -*----------------------------------*=========                 |
  \      /  F ield         | OpenFOAM: The Open Source CFD Toolbox
   \    /   O peration     | Website:  https://openfoam.org
    \  /    A nd           | Version:  6
     \/     M anipulation  |
\*---------------------------------------------------------------------------*/
FoamFile
{
    version     2.0;
    format      ascii;
    class       volScalarField;
    location    "1800";
    object      PMV;
}
// * * * * * * * * * * * * * * * * * * * * * * * * * * * * * * * * * * * * * //

dimensions      [0 0 0 0 0 0 0];

internalField   nonuniform List<scalar> 
459
(
1.6442382431979772
1.4275825312416675
1.4011545638297402
1.3775731251216368
1.362119377826608
1.353383153827638
1.3510156476487332
1.35486191680893
1.3658150810123826
1.3834299337365437
1.410201554256762
1.4476610940181445
1.49685408475216
1.5286163087633713
1.5333937335597185
1.5993037582983474
1.5864106496500894
1.5816350905159813
1.583545335570047
1.5864106496500894
1.5892758991729994
1.5916270775871437
1.5871953122541183
1.5867791282057313
1.5874782564844558
1.5887723795124997
1.5909754354588794
1.593264559515654
1.5964498807066758
1.6019691507162241
1.6110609172135462
1.6184021781047664
1.622221497285347
1.6341560665273822
1.6053700052808368
1.4486043120447778
1.439862640088019
1.4189217055016734
1.4062004612370962
1.3989387253520795
1.397469294068933
1.3994146375306515
1.4045822417384093
1.4136539001263475
1.4291966825085134
1.454734891947207
1.4907037815069633
1.519538768558551
1.5209721017528957
1.5209721017528957
1.5209721017528957
1.5640848530496858
1.5768593539067053
1.5730386380733672
1.574949009982266
1.5726261413529152
1.5681392830327314
1.5665890100304445
1.5675337506329237
1.5686256037191162
1.5693940726964397
1.56999848814385
1.5711570278703237
1.5719994284071834
1.573051641760042
1.5759954518469614
1.5835735098462387
1.5993037582983474
1.6050335995488438
1.5969538968602237
1.6472070315552325
1.4514051765083822
1.475909006635447
1.4664290993885722
1.4639377798598234
1.463222644636647
1.4650212778717235
1.4651508199829621
1.4606662683112697
1.4535026238642974
1.4506115600692455
1.457678008374403
1.4772337914294709
1.5105076438836742
1.518105421461898
1.5204943255689953
1.5219276494696377
1.4737802888109885
1.5142416461931318
1.5264865163728754
1.5356170166334522
1.5460032851266385
1.5531001223205803
1.556624929869058
1.5650051684312423
1.571374293949511
1.5741256546531877
1.5758316592540056
1.5764960414262517
1.57706357161467
1.5762843939815774
1.572187575569165
1.5747211256668587
1.592825978027885
1.5834260658726558
1.535437814531063
1.7227586358842701
1.4567830308940335
1.5042791071265658
1.5146538825661204
1.5323001406217485
1.5484832731339582
1.560606729920933
1.5546052694852215
1.5268223570173194
1.4899190699990563
1.4599078362417792
1.4455105993562452
1.4507284805590202
1.47326122899103
1.505886529163751
1.5219276494696377
1.5045863093955676
1.4643552955887578
1.464910889292414
1.4927428894430843
1.5192823357896672
1.5413477534770272
1.5610874790912355
1.5754804411478707
1.5816870838619477
1.5813291952134672
1.5813781061654353
1.5830312769924417
1.5852814786929457
1.5893589985481915
1.5961292136126568
1.6081481751172912
1.6308251368301792
1.6236537100871142
1.608671505245569
1.5639922888939004
1.4908763410208892
1.8123329210385792
1.477303464408582
1.5313027701055877
1.5613276408553953
1.6103472027783563
1.6657851907448533
1.6880843773031649
1.636680314235633
1.5634893187093863
1.4951051935109674
1.446698958265191
1.4216938247452042
1.4206286347043189
1.4398158935298904
1.4701747109153518
1.496867528999442
1.5024559624467795
1.4989837785861961
1.508057101294919
1.5327909888174458
1.562601536566332
1.590428644854344
1.614100494027958
1.6303371378879943
1.6394068857409978
1.6470440066924095
1.6493903589541068
1.650190280301918
1.649603976229851
1.6485867083165855
1.6481945396613515
1.6487404313118545
1.6500430753339128
1.635609250508213
1.6083444559767048
1.547187759970852
1.5403072100748678
1.6704294062458678
1.6580260482619673
1.494769946618318
1.9022247759827469
1.5200724828991659
1.5843382469379768
1.6150571371026883
1.684744477292997
1.7143226073644784
1.6955414507547317
1.6149671841387898
1.5364596481775186
1.4657274591785723
1.414213139688053
1.3895101432200305
1.3925548024997214
1.4186675265255297
1.4582449656082332
1.4994438430946282
1.5295468832394628
1.5506974876765163
1.574635594978012
1.6052623862807807
1.622698903491254
1.637974868111296
1.6503850834303346
1.660407707117945
1.668520583345131
1.6752013134018475
1.6804501615934233
1.683790200284495
1.685698745487852
1.684744477292997
1.6814044693154644
1.6766328435043907
1.668997792273033
1.647183127394751
1.6119822471107739
1.5475313656952354
1.5455744087216092
1.5599303540475349
1.5586786644345905
1.571741418162433
1.9919456348692524
1.6156876079657054
1.7363777303789383
1.7111976804436941
1.7075274235560094
1.6789035441101154
1.6227385787474717
1.5479495178649645
1.4683498615651511
1.4005674537858501
1.3588485905416476
1.3499389122539442
1.3713286775800684
1.4160729361650533
1.475673581679123
1.5392225415619067
1.5773369355015054
1.6012137350449214
1.622221497285347
1.6408388853063938
1.6575441938592441
1.6709066066262015
1.6814044693154644
1.6895157297888004
1.696195109026799
1.7009658239331573
1.7043051890242198
1.7062133472676166
1.7062133472676166
1.7043051890242198
1.6985804948043088
1.6914241686120284
1.6823587682834795
1.6704294062458678
1.6338479200263623
1.573900678405422
1.5498641375832873
1.5376035507897323
1.5118698434458169
1.59874072766231
2.1241045633890225
1.9356789458251118
1.8914791929962123
1.7919993720415863
1.731229125561524
1.646257888522236
1.5393477232800894
1.4320840543850044
1.3447950385599394
1.293582012542881
1.2839536391230957
1.3134971548828989
1.3732788685788144
1.4531921834454502
1.5453365942058879
1.5845004474116724
1.6169699016709915
1.643225510958909
1.6632711449040878
1.679018683633728
1.6919012727395977
1.7019199396620035
1.7095525355201846
1.7152765937404564
1.7195694161884365
1.7224311915725552
1.7238620472079715
1.7238620472079715
1.7224311915725552
1.7195694161884365
1.7147996017229161
1.706690381081454
1.6981034221720013
1.6876072553682906
1.6761556689680501
1.6647028353556816
1.6424298959344594
1.6287477701557882
1.5688444871633507
1.4855330404735345
2.321766283452155
2.1904390869161956
2.025607741320378
1.8436858431761012
1.6277047991882097
1.4087516013809747
1.2391222266055155
1.138578485227186
1.1093078000866368
1.1424383307327783
1.2221347223528927
1.3332275146552068
1.458883262330408
1.5386487166164877
1.5959612280767583
1.6394068857409978
1.6670889437795036
1.6866530048520265
1.7009658239331573
1.7119376005367064
1.7210003145457478
1.7243476495954795
1.7243568515656365
1.7238031513270555
1.7227354235019152
1.7201255327913343
1.715959546047075
1.709951966543387
1.7023336505130289
1.6931751996625637
1.6818283595187415
1.669783483166293
1.658706379245651
1.645566349828231
1.6307961889720908
1.6181467726117928
1.6082358552176903
1.6014566208924168
1.5885236588935872
1.560657972298755
-2.9733782099037542
-1.8590343251884904
-1.149101218172467
-0.39333047357658024
0.17209725084958005
0.6086120714856322
0.962515128610842
1.219730617176478
1.3833149909088907
1.5071159700748147
1.5797248170660345
1.6303248517817717
1.6493425632373777
1.66631290406994
1.6795679040968814
1.6890479285933837
1.6953950520604417
1.6996178252787768
1.7016080745431568
1.7019439847062918
1.700828970593657
1.6987294732742872
1.6959282852779218
1.6922385388118069
1.6875790710281466
1.683004595605845
1.6777706822091787
1.6731780980972084
1.6691005136406585
1.6660769098770343
1.6641733837575101
1.6633912598855884
1.6627027921525257
1.6642312150652823
1.6731118498737314
1.7036442006534913
1.8153894232239378
1.6619743945689773
-2.4711406990735507
-1.0030469424762911
0.04440662108132886
0.5793740304250108
0.9011911849926926
1.1041430149452118
1.257291847310538
1.3763531834064962
1.4682317895741266
1.5366205911471589
1.5826794878017358
1.6154023098981891
1.6388161591213577
1.6556622639210694
1.667758879862208
1.6758935017769436
1.6815184550859044
1.6847661998862782
1.686819302968374
1.6884043772101154
1.6890232228566007
1.6889507779709028
1.6886113685338229
1.6879797465018072
1.6870779917402612
1.6855095671338238
1.684470212549
1.6838637354630752
1.6842151015338573
1.6868670301763486
1.6932219308536105
1.703741798557566
1.7157559579758337
1.7272481705742166
1.7416078475727788
1.8025243254681795
1.7010490270256389
1.7890368994491817
-0.8507695221292164
-0.9898033725247356
-0.8701348577447354
0.37998474874479826
0.8927383678529893
1.1072081879345912
1.2392096296060744
1.341357676958732
1.4238755592548369
1.4908490637615346
1.545315198963573
1.5868266942246345
1.6175178007061233
1.6384786903537862
1.6526580738748693
1.661719596717926
1.666647977027103
1.6685428815381833
1.6694693732055215
1.6689274134172696
1.6687988152044197
1.6682923039404907
1.6684566276714226
1.6690093386958567
1.6694355593729637
1.6702551382992306
1.6715548834127811
1.6735354235492381
1.677030702399605
1.6814160118194768
1.6877975971043315
1.699038423020296
1.717845027718374
1.7511832298541459
1.7810780161984685
1.7853677174146012
1.7906103895312646
1.7164858054948986
1.7213226549187435
1.624851469308719
)
;

boundaryField
{
    ".*"
    {
        type            zeroGradient;
    }
}


// ************************************************************************* //
