/*--------------------------------*- C++ -*----------------------------------*\
  =========                 |
  \\      /  F ield         | OpenFOAM: The Open Source CFD Toolbox
   \\    /   O peration     | Website:  https://openfoam.org
    \\  /    A nd           | Version:  6
     \\/     M anipulation  |
\*---------------------------------------------------------------------------*/
FoamFile
{
    version     2.0;
    format      ascii;
    class       volScalarField;
    location    "500";
    object      alphat;
}
// * * * * * * * * * * * * * * * * * * * * * * * * * * * * * * * * * * * * * //

dimensions      [1 -1 -1 0 0 0 0];

internalField   nonuniform List<scalar> 
459
(
0.000851606
0.000885768
0.000867153
0.000896306
0.000921824
0.000943597
0.000962431
0.000979213
0.000994871
0.00101054
0.00102278
0.00103043
0.0010334
0.00103338
0.00103066
0.000830023
0.000784591
0.00074678
0.000721841
0.000703232
0.000682749
0.000654674
0.000626451
0.000599095
0.000572721
0.000547491
0.000523475
0.00050063
0.000478774
0.000457517
0.000436181
0.000413567
0.000400183
0.00036891
0.00132294
0.00205934
0.00170221
0.00201014
0.00214978
0.00229817
0.00244664
0.00258306
0.00268994
0.00274382
0.00275748
0.00269925
0.00252713
0.00218382
0.00162819
0.00106537
0.000993641
0.000983887
0.00175302
0.00228653
0.00262945
0.0027673
0.00265902
0.00216558
0.00187934
0.00166073
0.00148534
0.00133893
0.00121351
0.00110277
0.00100005
0.000900069
0.000813517
0.000736401
0.000887025
0.000491634
0.00175938
0.00318708
0.00182358
0.0028373
0.00306675
0.00322367
0.00334786
0.00344435
0.00351638
0.00355953
0.00357439
0.00353144
0.00338983
0.00309728
0.00260945
0.0019559
0.00118123
0.00112758
0.00313509
0.00375722
0.00390186
0.00382489
0.00322739
0.000837653
0.000730017
0.000651496
0.000592594
0.000547005
0.000510675
0.000481167
0.000457336
0.000439685
0.000501467
0.000582535
0.00101175
0.000583472
0.00220867
0.00490813
0.00181295
0.00317539
0.00359073
0.00373006
0.00380901
0.00385832
0.00389441
0.00392257
0.00394636
0.00395006
0.0039042
0.00376299
0.00345201
0.00287069
0.00200197
0.00123578
0.00347288
0.00392808
0.00415492
0.00418203
0.00404606
0.00340908
0.000858261
0.000805863
0.000785455
0.000774803
0.000762781
0.00074255
0.000714001
0.000683681
0.000646726
0.000613952
0.000616923
0.00123512
0.00065274
0.00266281
0.00714968
0.00232114
0.00299198
0.0038139
0.00397928
0.00402815
0.00403836
0.00404041
0.00405477
0.00408547
0.00413527
0.00417718
0.00417849
0.00410262
0.00392597
0.00369273
0.00350288
0.00355923
0.00390902
0.00406915
0.00408237
0.00402247
0.003864
0.00340998
0.00333413
0.00331916
0.00328839
0.00321395
0.00308119
0.00283857
0.00245568
0.00199583
0.00152067
0.00111755
0.00117161
0.00084692
0.00082108
0.000970025
0.00108234
0.00312198
0.00950739
0.00407924
0.00263938
0.00356261
0.00396035
0.00409368
0.00412367
0.00409309
0.00405945
0.00408276
0.00416497
0.00425333
0.00431133
0.0042895
0.00411383
0.00374626
0.00331064
0.00318769
0.00377384
0.00398291
0.00397437
0.00393415
0.00391274
0.00389624
0.00391931
0.00392546
0.00388979
0.00381089
0.00369596
0.00354399
0.00325711
0.00283172
0.00228717
0.00173858
0.00125905
0.00106787
0.000992502
0.00147306
0.00113753
0.00357839
0.011424
0.00752978
0.00394976
0.00291296
0.00308525
0.00354907
0.00393025
0.00415794
0.00402304
0.00405674
0.00415006
0.00424939
0.0043332
0.00435985
0.00423344
0.00383452
0.003188
0.00285652
0.00372409
0.00401654
0.00397693
0.00391394
0.00390071
0.0039188
0.00393635
0.00392003
0.00386185
0.00377978
0.00369581
0.00362641
0.00351486
0.0032046
0.00272503
0.00222169
0.00171166
0.00144958
0.00145475
0.00160104
0.00131788
0.00369121
0.0114015
0.0093421
0.00742922
0.00544408
0.00413709
0.00365606
0.00371279
0.00400242
0.00406873
0.00408992
0.00413667
0.00420568
0.00427528
0.00431195
0.0042517
0.00394091
0.00318909
0.00257867
0.00372873
0.00415428
0.00407778
0.00398007
0.00393812
0.00391094
0.00386236
0.003779
0.00367306
0.003577
0.00352785
0.00355026
0.00362937
0.00356061
0.00317408
0.0028466
0.00275606
0.00310567
0.00409143
0.00536592
0.0020019
0.00361381
0.00438049
0.00498494
0.0052248
0.00512071
0.00473474
0.0043428
0.00408853
0.00398857
0.00395073
0.00397895
0.00404498
0.00412006
0.0041787
0.00420117
0.00415671
0.0039026
0.00315417
0.00234669
0.00373194
0.00438346
0.00425469
0.00412022
0.00404875
0.00396569
0.0038371
0.00365967
0.0034507
0.00324221
0.00306634
0.0029384
0.00285309
0.00279681
0.00276896
0.00281072
0.00290242
0.00294259
0.00283366
0.00262396
0.00182678
0.00285178
0.00493589
0.00513763
0.00501136
0.00479377
0.00459352
0.00445098
0.00435064
0.00427918
0.00422348
0.00416492
0.00409194
0.00400599
0.00390631
0.00365277
0.00287185
0.00206318
0.00375708
0.00472009
0.00447348
0.00433345
0.00429738
0.00422238
0.00408048
0.00387679
0.00362835
0.00336838
0.00314007
0.0029831
0.00291462
0.00290603
0.00293325
0.0029757
0.0029847
0.0028889
0.00264944
0.00228715
0.00149259
0.00298508
0.00567508
0.00576356
0.00549432
0.00523116
0.00497891
0.00473356
0.00450069
0.00425804
0.00396456
0.00365898
0.00336946
0.00312087
0.00292924
0.00272632
0.00221131
0.00170544
0.00353353
0.00437525
0.00409941
0.00402456
0.004038
0.00400193
0.00391533
0.00379802
0.00366716
0.00353801
0.00341819
0.00331002
0.00326527
0.00327745
0.00332704
0.00338688
0.00344172
0.00344285
0.00343022
0.00289075
0.00151513
0.00256177
0.00270327
0.00282424
0.00296956
0.00276758
0.0025577
0.00235933
0.00218882
0.00203086
0.00188508
0.0017533
0.00164119
0.00154006
0.00144602
0.00135787
0.00127623
0.00120165
0.00113003
0.00107052
0.00112534
0.00115377
0.00114337
0.00113991
0.00113954
0.00113865
0.00113919
0.00114387
0.00115508
0.00117505
0.00120637
0.00125175
0.00130709
0.00137356
0.00145009
0.00153559
0.00164936
0.00168509
0.00164789
0.00153835
0.00142072
)
;

boundaryField
{
    floor
    {
        type            compressible::alphatWallFunction;
        Prt             0.85;
        value           nonuniform List<scalar> 
29
(
0.000146531
0.000118025
0.000111465
0.00010597
0.000102328
9.96008e-05
9.6588e-05
9.24403e-05
8.82488e-05
8.41641e-05
8.0204e-05
7.63948e-05
7.27486e-05
6.92606e-05
6.59051e-05
6.26231e-05
5.93093e-05
5.57745e-05
5.36711e-05
4.87215e-05
4.87208e-05
6.788e-05
8.18166e-05
9.21478e-05
0.000146529
0.000118024
0.000139944
0.000160054
0.000175007
)
;
    }
    ceiling
    {
        type            compressible::alphatWallFunction;
        Prt             0.85;
        value           nonuniform List<scalar> 
43
(
0.000349119
0.000367015
0.000382241
0.000400561
0.000375282
0.000348788
0.000323522
0.000301617
0.000281159
0.000262123
0.000244777
0.000229908
0.000216398
0.000203746
0.000191804
0.000180664
0.000170418
0.000160511
0.000152225
0.000159863
0.000163814
0.000162374
0.000161894
0.000161844
0.00016172
0.000161795
0.000162443
0.000163996
0.000166761
0.000171083
0.000177324
0.0001849
0.000193953
0.000204314
0.000215819
0.000231018
0.000235767
0.000230823
0.000216191
0.00020035
0.000480463
0.000573358
0.000402264
)
;
    }
    sWall
    {
        type            compressible::alphatWallFunction;
        Prt             0.85;
        value           uniform 0.000347836;
    }
    nWall
    {
        type            compressible::alphatWallFunction;
        Prt             0.85;
        value           nonuniform List<scalar> 6(0.000153504 0.000161175 0.000185976 0.000209665 0.000212693 0.000199969);
    }
    sideWalls
    {
        type            empty;
    }
    glass1
    {
        type            compressible::alphatWallFunction;
        Prt             0.85;
        value           nonuniform List<scalar> 9(0.000117481 0.000182128 0.000239864 0.000297819 0.000355238 0.000412331 0.000468272 0.000482137 0.00047297);
    }
    glass2
    {
        type            compressible::alphatWallFunction;
        Prt             0.85;
        value           nonuniform List<scalar> 2(0.000274814 0.000252113);
    }
    sun
    {
        type            compressible::alphatWallFunction;
        Prt             0.85;
        value           nonuniform List<scalar> 
14
(
0.000121153
0.000126024
0.000123361
0.000127527
0.000131161
0.000134252
0.000136919
0.000139291
0.000141499
0.000143704
0.000145425
0.000146499
0.000146916
0.000146913
)
;
    }
    heatsource1
    {
        type            compressible::alphatWallFunction;
        Prt             0.85;
        value           nonuniform List<scalar> 3(0.000116937 0.000138192 0.000153966);
    }
    heatsource2
    {
        type            compressible::alphatWallFunction;
        Prt             0.85;
        value           nonuniform List<scalar> 4(0.000151594 0.000141524 0.000141522 0.000167695);
    }
    Table_master
    {
        type            compressible::alphatWallFunction;
        Prt             0.85;
        value           nonuniform List<scalar> 9(0.000119322 0.000103717 9.2158e-05 8.33757e-05 7.65046e-05 7.09779e-05 6.64527e-05 6.27725e-05 6.0031e-05);
    }
    Table_slave
    {
        type            compressible::alphatWallFunction;
        Prt             0.85;
        value           nonuniform List<scalar> 9(0.000122284 0.000114742 0.000111789 0.000110244 0.000108497 0.000105551 0.000101375 9.69186e-05 9.14542e-05);
    }
    inlet
    {
        type            fixedValue;
        value           uniform 1.94e-05;
    }
    outlet
    {
        type            zeroGradient;
    }
}


// ************************************************************************* //
