/*--------------------------------*- C++ -*----------------------------------*\
  =========                 |
  \\      /  F ield         | OpenFOAM: The Open Source CFD Toolbox
   \\    /   O peration     | Website:  https://openfoam.org
    \\  /    A nd           | Version:  6
     \\/     M anipulation  |
\*---------------------------------------------------------------------------*/
FoamFile
{
    version     2.0;
    format      ascii;
    class       volScalarField;
    location    "500";
    object      epsilon;
}
// * * * * * * * * * * * * * * * * * * * * * * * * * * * * * * * * * * * * * //

dimensions      [0 2 -3 0 0 0 0];

internalField   nonuniform List<scalar> 
459
(
0.000138011
0.000154764
0.000145194
0.000160336
0.000174424
0.000187078
0.000198505
0.00020907
0.000219259
0.00022978
0.000238226
0.000243607
0.000245704
0.000245677
0.000243725
0.000127231
0.000107452
9.26489e-05
8.36705e-05
7.73617e-05
7.07934e-05
6.2411e-05
5.46793e-05
4.78215e-05
4.1777e-05
3.64933e-05
3.18964e-05
2.7898e-05
2.43998e-05
2.12906e-05
1.84474e-05
1.57231e-05
1.42447e-05
1.11607e-05
0.00051871
0.00117747
0.00014398
0.000121739
0.000120489
0.000121338
0.000123689
0.000128503
0.000136851
0.000149721
0.000164345
0.000178776
0.00019102
0.000200819
0.000216826
0.00026913
0.000218306
0.000211906
0.000112965
8.28691e-05
7.02538e-05
6.17243e-05
5.49191e-05
5.14178e-05
4.47952e-05
3.84971e-05
3.27675e-05
2.77352e-05
2.34282e-05
1.97909e-05
1.67468e-05
1.43273e-05
1.29265e-05
1.26036e-05
4.19205e-05
2.64132e-05
0.00122312
0.00390153
0.000252985
0.000125301
0.000119289
0.000122587
0.000128862
0.000138439
0.000151615
0.000168111
0.000185521
0.000199881
0.000208355
0.000212342
0.000220974
0.00025329
0.000366834
0.000318996
0.000113376
9.06173e-05
7.58161e-05
6.53725e-05
6.19028e-05
0.000130708
8.65042e-05
6.14761e-05
4.62572e-05
3.63765e-05
2.95954e-05
2.47528e-05
2.12517e-05
1.88831e-05
1.51519e-05
1.43552e-05
8.98583e-05
4.41513e-05
0.00242544
0.00924131
0.000576327
0.000143684
0.000126339
0.000133793
0.000144983
0.000159507
0.000177927
0.000200465
0.000224111
0.00024065
0.000245294
0.000239659
0.000231612
0.000237267
0.000291052
0.000420031
0.000203834
0.000131241
9.9688e-05
7.71521e-05
6.4963e-05
6.26506e-05
0.000140628
0.000116405
0.000107779
0.00010345
9.8705e-05
9.10538e-05
8.09446e-05
7.10594e-05
6.01428e-05
3.75929e-05
2.69394e-05
0.000184167
6.18197e-05
0.00425944
0.0173015
0.00142328
0.000191364
0.000133738
0.000142229
0.000158849
0.000181414
0.00021139
0.000249904
0.000290222
0.00031502
0.000318167
0.000302833
0.00027521
0.000243771
0.000219567
0.000204452
0.000160829
0.000143564
0.00010825
8.31261e-05
7.0392e-05
6.58252e-05
7.00689e-05
7.22176e-05
7.45734e-05
7.59413e-05
7.47339e-05
6.97734e-05
6.17935e-05
5.50366e-05
4.97087e-05
4.17604e-05
3.42601e-05
0.000121731
7.61058e-05
0.000123103
0.000203044
0.000282103
0.00687732
0.0256532
0.0036286
0.000410319
0.000175781
0.00016093
0.000174685
0.000202039
0.000246296
0.000318929
0.000388079
0.000420522
0.000418232
0.000391556
0.00034816
0.00029363
0.000231281
0.00017936
0.000159063
0.000164208
0.00012527
9.72706e-05
8.3685e-05
7.93997e-05
8.16599e-05
8.71021e-05
9.36437e-05
9.92413e-05
0.000101559
9.78444e-05
8.56735e-05
7.00146e-05
5.7063e-05
4.68289e-05
4.1648e-05
7.80969e-05
7.849e-05
9.36103e-05
0.000383369
0.000327381
0.0103707
0.0301976
0.00893937
0.001983
0.000680867
0.000372845
0.000301631
0.000298651
0.000333083
0.000470801
0.000554711
0.000570617
0.000544748
0.000496521
0.00043442
0.000363676
0.000280219
0.000200539
0.000167323
0.000196194
0.000155242
0.000122483
0.000107291
0.000102823
0.00010518
0.000112128
0.000122039
0.000133085
0.00014306
0.00014862
0.000143711
0.000118836
9.56639e-05
7.82948e-05
7.24915e-05
9.20245e-05
0.000124717
0.000230681
0.000573254
0.000509049
0.0114108
0.0369857
0.0184971
0.0106842
0.0055113
0.00272638
0.00152946
0.00105566
0.000899029
0.00089524
0.000856448
0.000784741
0.000698781
0.000610474
0.000524586
0.00044039
0.000346856
0.000241976
0.000182033
0.000239801
0.00020339
0.000164853
0.000146653
0.000140597
0.000141641
0.00014786
0.000158632
0.000174164
0.000195104
0.000221442
0.000250478
0.00027148
0.000265011
0.000281529
0.000341001
0.00055652
0.00116171
0.00257627
0.00784815
0.0017887
0.0107442
0.0190715
0.0159375
0.0119634
0.0085867
0.00585821
0.00396484
0.00277738
0.00208193
0.00160427
0.0012719
0.00103382
0.000856425
0.000717795
0.000604614
0.000508892
0.000411012
0.000293479
0.000205709
0.00029686
0.000283336
0.000238215
0.000215247
0.000205397
0.00020131
0.000201378
0.00020639
0.000218718
0.000242343
0.000282421
0.000344629
0.000435145
0.000560729
0.000747189
0.0010348
0.00142575
0.00185884
0.002202
0.00243176
0.00136186
0.0073684
0.010379
0.00763322
0.00559875
0.00409554
0.003028
0.00229412
0.00178019
0.00141143
0.00114135
0.000937219
0.000778019
0.000652401
0.000554686
0.000457152
0.000328384
0.000232096
0.00038073
0.000432216
0.000375948
0.000349098
0.000338906
0.000329864
0.000320032
0.000311078
0.000305704
0.000308444
0.000326013
0.000367411
0.000442877
0.00055903
0.000725074
0.000944184
0.00118415
0.00136069
0.0013629
0.00111119
0.000742294
0.00562388
0.00941144
0.00695941
0.0051207
0.00385632
0.00292966
0.00223627
0.00172093
0.00133784
0.00104826
0.000828695
0.000662913
0.000540138
0.000452579
0.000389003
0.000327773
0.0002618
0.000471116
0.000564418
0.000547412
0.000532006
0.000524524
0.000510758
0.000490736
0.000469124
0.000451661
0.000444292
0.000452606
0.000482354
0.000542739
0.000641231
0.000783482
0.000967947
0.00118472
0.00136337
0.00148129
0.000977483
0.00077634
0.00362097
0.00425223
0.00484881
0.0057388
0.00467768
0.00370702
0.00291519
0.00232958
0.00186154
0.00148908
0.00119827
0.000982922
0.000812277
0.000672448
0.000556879
0.000462395
0.000386022
0.000321089
0.000273232
0.000317601
0.00034237
0.000333219
0.000330217
0.000329912
0.000329149
0.000329623
0.000333703
0.000343615
0.000361759
0.000391465
0.000437335
0.000497947
0.000577868
0.000679982
0.000807571
0.00100088
0.00106747
0.000998397
0.000812249
0.000640036
)
;

boundaryField
{
    floor
    {
        Cmu             0.09;
        kappa           0.41;
        E               9.8;
        type            epsilonWallFunction;
        value           nonuniform List<scalar> 
29
(
0.000243725
0.000127231
0.000107452
9.26489e-05
8.36705e-05
7.73617e-05
7.07934e-05
6.2411e-05
5.46793e-05
4.78215e-05
4.1777e-05
3.64933e-05
3.18964e-05
2.7898e-05
2.43998e-05
2.12906e-05
1.84474e-05
1.57231e-05
1.42447e-05
1.11607e-05
1.11607e-05
2.64132e-05
4.41513e-05
6.18197e-05
0.000243725
0.000127231
0.000211906
0.000318996
0.000420031
)
;
    }
    ceiling
    {
        Cmu             0.09;
        kappa           0.41;
        E               9.8;
        type            epsilonWallFunction;
        value           nonuniform List<scalar> 
43
(
0.00362097
0.00425223
0.00484881
0.0057388
0.00467768
0.00370702
0.00291519
0.00232958
0.00186154
0.00148908
0.00119827
0.000982922
0.000812277
0.000672448
0.000556879
0.000462395
0.000386022
0.000321089
0.000273232
0.000317601
0.00034237
0.000333219
0.000330217
0.000329912
0.000329149
0.000329623
0.000333703
0.000343615
0.000361759
0.000391465
0.000437335
0.000497947
0.000577868
0.000679982
0.000807571
0.00100088
0.00106747
0.000998397
0.000812249
0.000640036
0.0107442
0.0190715
0.00562388
)
;
    }
    sWall
    {
        Cmu             0.09;
        kappa           0.41;
        E               9.8;
        type            epsilonWallFunction;
        value           uniform 0.00362097;
    }
    nWall
    {
        Cmu             0.09;
        kappa           0.41;
        E               9.8;
        type            epsilonWallFunction;
        value           nonuniform List<scalar> 6(0.000282103 0.000327381 0.000509049 0.000742294 0.00077634 0.000640036);
    }
    sideWalls
    {
        type            empty;
    }
    glass1
    {
        Cmu             0.09;
        kappa           0.41;
        E               9.8;
        type            epsilonWallFunction;
        value           nonuniform List<scalar> 9(0.000138011 0.00051871 0.00122312 0.00242544 0.00425944 0.00687732 0.0103707 0.0114108 0.0107442);
    }
    glass2
    {
        Cmu             0.09;
        kappa           0.41;
        E               9.8;
        type            epsilonWallFunction;
        value           nonuniform List<scalar> 2(0.0017887 0.00136186);
    }
    sun
    {
        Cmu             0.09;
        kappa           0.41;
        E               9.8;
        type            epsilonWallFunction;
        value           nonuniform List<scalar> 
14
(
0.000138011
0.000154764
0.000145194
0.000160336
0.000174424
0.000187078
0.000198505
0.00020907
0.000219259
0.00022978
0.000238226
0.000243607
0.000245704
0.000245677
)
;
    }
    heatsource1
    {
        Cmu             0.09;
        kappa           0.41;
        E               9.8;
        type            epsilonWallFunction;
        value           nonuniform List<scalar> 3(0.000123103 0.000203044 0.000282103);
    }
    heatsource2
    {
        Cmu             0.09;
        kappa           0.41;
        E               9.8;
        type            epsilonWallFunction;
        value           nonuniform List<scalar> 4(0.00026913 0.000218306 0.000218306 0.000366834);
    }
    Table_master
    {
        Cmu             0.09;
        kappa           0.41;
        E               9.8;
        type            epsilonWallFunction;
        value           nonuniform List<scalar> 9(0.000130708 8.65042e-05 6.14761e-05 4.62572e-05 3.63765e-05 2.95954e-05 2.47528e-05 2.12517e-05 1.88831e-05);
    }
    Table_slave
    {
        Cmu             0.09;
        kappa           0.41;
        E               9.8;
        type            epsilonWallFunction;
        value           nonuniform List<scalar> 9(0.000140628 0.000116405 0.000107779 0.00010345 9.8705e-05 9.10538e-05 8.09446e-05 7.10594e-05 6.01428e-05);
    }
    inlet
    {
        type            turbulentMixingLengthDissipationRateInlet;
        mixingLength    0.01;
        phi             phi;
        k               k;
        value           uniform 0.000101881;
    }
    outlet
    {
        type            zeroGradient;
    }
}


// ************************************************************************* //
