/*--------------------------------*- C++ -*----------------------------------*\
  =========                 |
  \\      /  F ield         | OpenFOAM: The Open Source CFD Toolbox
   \\    /   O peration     | Website:  https://openfoam.org
    \\  /    A nd           | Version:  6
     \\/     M anipulation  |
\*---------------------------------------------------------------------------*/
FoamFile
{
    version     2.0;
    format      ascii;
    class       surfaceScalarField;
    location    "1400";
    object      phi;
}
// * * * * * * * * * * * * * * * * * * * * * * * * * * * * * * * * * * * * * //

dimensions      [1 0 -1 0 0 0 0];

internalField   nonuniform List<scalar> 
852
(
-0.00305281
0.00311256
-0.00415025
0.00109743
-0.0049604
0.000810148
-0.00557155
0.000611139
-0.00595137
0.000379823
-0.00607531
0.000123931
-0.00592196
-0.00015336
-0.00548378
-0.00043819
-0.00479358
-0.000690201
-0.00392414
-0.000869445
-0.0029713
-0.00095285
-0.0020357
-0.000935601
-0.00120921
-0.000826499
-0.000541853
-0.000667365
-0.000539771
-0.00083283
0.00083648
-0.000511013
-0.000321823
0.000166451
-0.000677471
0.000720035
-0.00055359
0.00109891
-0.000378886
0.00134128
-0.000242376
0.00147471
-0.000133436
0.00153995
-6.52437e-05
0.00157651
-3.65656e-05
0.00159916
-2.26572e-05
0.0016122
-1.3044e-05
0.00161716
-4.9633e-06
0.00161222
4.93192e-06
0.00158859
2.36166e-05
0.00152247
6.61127e-05
0.00137382
0.000148643
0.00112821
0.000245604
0.000818517
0.000309691
0.000823424
-0.00217433
0.0054475
-0.00323093
0.00215402
-0.00405833
0.00163755
-0.00465903
0.00121183
-0.00503283
0.000753621
-0.00516317
0.000254264
-0.00502647
-0.000290067
-0.00462325
-0.000841417
-0.00399901
-0.00131445
-0.00323251
-0.00163595
-0.00241281
-0.00177256
-0.00162111
-0.00172731
-0.000929736
-0.00151788
-0.00040803
-0.00118908
-0.000163696
-0.000784111
0.000116757
-0.00028051
0.000116698
0.0003308
0.000516263
0.000778993
-0.000770023
0.00106661
-0.000965099
0.0013126
-0.000799578
0.00150405
-0.000570341
0.00162319
-0.000361523
0.00164387
-0.000154128
0.0016489
-7.02827e-05
0.00165489
-4.25607e-05
0.00165988
-2.76477e-05
0.00166314
-1.63143e-05
0.00166479
-6.62287e-06
0.00166399
5.7343e-06
0.00165686
3.07306e-05
0.00161266
0.000110315
0.00142438
0.000336911
0.00110189
0.000568084
0.000700383
0.000711193
0.00153635
-0.00151717
0.00721018
-0.00242217
0.00305901
-0.0031511
0.00236647
-0.00366128
0.001722
-0.00398007
0.0010724
-0.00408413
0.000358312
-0.00392966
-0.000444536
-0.00352531
-0.00124577
-0.0029404
-0.00189938
-0.00226234
-0.00231401
-0.00156923
-0.00246567
-0.000916704
-0.00237984
-0.00035096
-0.00208363
9.91598e-05
-0.0016392
0.000392052
-0.00107701
0.000518034
-0.000406499
0.000634727
0.00162893
-0.00110125
0.00186426
-0.00100536
0.00182252
-0.000923365
0.0018145
-0.000791571
0.0018416
-0.000597442
0.00187597
-0.0003959
0.00172199
0.00165185
0.00160944
0.00158194
0.00156577
0.0015593
0.00156518
0.00159606
0.00170652
0.00139954
0.000643888
0.00103278
0.000934831
0.000585442
0.00115853
0.00214077
-0.00105357
0.00858161
-0.00176437
0.00376981
-0.00224004
0.00284214
-0.0025651
0.00204705
-0.00275365
0.00126095
-0.00275876
0.000363414
-0.00252022
-0.000683085
-0.00208693
-0.00167907
-0.00155397
-0.00243234
-0.00100149
-0.00286649
-0.000480864
-0.00298631
-1.41777e-05
-0.00284653
0.000387297
-0.00248511
0.000727626
-0.00197954
0.00103911
-0.0013885
0.00140895
-0.00077634
0.0023066
-0.00026293
0.00270624
-0.000389394
0.00229451
-0.000689537
0.00214114
-0.000851992
0.00200334
-0.000785562
0.00188441
-0.000672653
0.00181401
-0.000527045
0.00176758
-0.000349471
0.00191499
-0.00014757
0.0020029
-8.80672e-05
0.00206928
-6.65462e-05
0.00211533
-4.62046e-05
0.00212565
-1.04848e-05
0.00207897
4.65223e-05
0.00195099
0.000127824
0.00170899
0.000241842
0.00129557
0.000413258
0.00114429
0.000795161
0.000821742
0.00125738
0.000337641
0.00164262
0.00250325
-0.000733209
0.00969421
-0.00126629
0.00430289
-0.00135163
0.00292747
-0.00138838
0.00208379
-0.00135797
0.00123053
-0.00113932
0.000144764
-0.000736579
-0.00108584
-0.000283681
-0.00213197
0.000136669
-0.0028527
0.000487206
-0.00321703
0.0007612
-0.00326031
0.000966155
-0.00305149
0.00113096
-0.00264992
0.00127909
-0.00212767
0.00144312
-0.00155254
0.00167029
-0.00100352
0.0020027
-0.000595341
0.00211211
-0.000498812
0.00201053
-0.000587962
0.00181292
-0.000654384
0.00164004
-0.000612687
0.00149521
-0.000527832
0.00139209
-0.000423932
0.00134638
-0.000303761
0.00139214
-0.000193337
0.00144642
-0.000142355
0.00150312
-0.000123252
0.00155789
-0.000100976
0.00159839
-5.09942e-05
0.0016042
4.07144e-05
0.0015557
0.000176316
0.00144161
0.000355923
0.00126385
0.000591011
0.0011066
0.000952411
0.000934383
0.00142959
0.000542243
0.00203476
0.000432726
0.00261276
-0.0011073
0.00153982
-0.00157229
0.000464771
-0.00151847
-0.00063392
0.0107595
-0.000987396
0.00465636
-0.00052339
0.00246345
-7.77475e-05
0.00163814
0.000358441
0.000794335
0.000905394
-0.000402195
0.00142675
-0.00160719
0.00179817
-0.00250341
0.00200113
-0.00305566
0.00206535
-0.00328126
0.00202882
-0.00322379
0.00192396
-0.00294663
0.00179188
-0.00251785
0.0016694
-0.00200519
0.00158618
-0.00146933
0.00156274
-0.00098008
0.00158637
-0.000618978
0.00154549
-0.000457937
0.00140259
-0.000445068
0.0012027
-0.000454499
0.00102057
-0.000430564
0.000876528
-0.000383795
0.000779624
-0.000327033
0.000741101
-0.000265243
0.000762429
-0.000214669
0.000815558
-0.000195489
0.000885482
-0.000193181
0.000965702
-0.0001812
0.00104947
-0.000134771
0.00112034
-3.01521e-05
0.00116054
0.000136105
0.00117153
0.000344926
0.00116066
0.000601879
0.00117722
0.000935843
0.0012746
0.00133221
0.00146067
0.00184868
0.00195741
0.00211602
0.00224068
0.00125654
0.00184971
0.000855731
0.000395719
-0.000656144
0.0118944
-0.000497476
0.00449768
0.000755392
0.00121058
0.00171497
0.00067856
0.00260497
-9.56775e-05
0.00339594
-0.00119317
0.00386277
-0.00207402
0.00401154
-0.00265219
0.00389627
-0.00294039
0.0035875
-0.0029725
0.00315783
-0.00279413
0.00267254
-0.00246134
0.00219081
-0.00203613
0.00175921
-0.00157359
0.00140377
-0.00111389
0.00113775
-0.000714065
0.000949944
-0.000431173
0.000786219
-0.000294217
0.000607376
-0.000266229
0.000424785
-0.000271913
0.000266469
-0.000272252
0.000146539
-0.00026387
7.09229e-05
-0.000251422
4.45764e-05
-0.000238901
6.43796e-05
-0.000234477
0.000114205
-0.000245319
0.000182212
-0.000261193
0.000266122
-0.000265115
0.000369743
-0.000238396
0.000497521
-0.000157935
0.000630117
3.50434e-06
0.000758593
0.000216445
0.000900508
0.000459959
0.00109418
0.000742162
0.00139279
0.00103359
0.00187027
0.0013712
0.00261218
0.0013741
0.00321106
0.000657654
0.00327369
0.000793101
0.00373844
0.00279491
0.00963562
0.00358977
0.00370282
0.00425195
0.000548392
0.00531244
-0.000381938
0.00623605
-0.00101929
0.00665703
-0.00161417
0.00662755
-0.00204455
0.00622758
-0.00225222
0.00555241
-0.00226522
0.00470609
-0.00212619
0.003788
-0.00187605
0.00288122
-0.00155457
0.00205198
-0.0012069
0.00134576
-0.000867373
0.000777188
-0.000545324
0.000358805
-0.000295686
7.59322e-05
-0.000148305
-0.000121753
-9.65365e-05
-0.000282254
-0.000105733
-0.000421379
-0.000132792
-0.000536181
-0.000157455
-0.000622695
-0.00017736
-0.000679299
-0.000194823
-0.000705748
-0.000212456
-0.000706401
-0.000233829
-0.000691633
-0.000260092
-0.000668081
-0.000284749
-0.000634896
-0.000298305
-0.000582715
-0.000290581
-0.000491233
-0.000249421
-0.000331639
-0.000156095
-0.00013197
1.67716e-05
9.41127e-05
0.000233871
0.000375532
0.000460738
0.000718718
0.000690403
0.00117571
0.000914198
0.00166321
0.000886591
0.0018047
0.000516162
0.000976419
0.00162137
0.00500699
0.0102296
0.0139286
0.0129894
0.00148763
0.0123648
0.000242609
0.0115683
-0.000222707
0.0104818
-0.000527734
0.00913054
-0.000693272
0.00762998
-0.000751674
0.00608476
-0.000720001
0.00458497
-0.000626395
0.00320708
-0.000498163
0.00200128
-0.00034877
0.000997346
-0.000202969
0.000201374
-7.14055e-05
-0.00037004
2.60863e-05
-0.000722941
5.72102e-05
-0.000924168
5.29183e-05
-0.00105072
3.0013e-05
-0.0011526
-3.85477e-06
-0.00124518
-4.02179e-05
-0.00132815
-7.44917e-05
-0.0014004
-0.000105116
-0.00146224
-0.000132987
-0.00151614
-0.00015856
-0.00156765
-0.000182327
-0.00162524
-0.0002025
-0.00169695
-0.000213047
-0.00179057
-0.000204686
-0.00191573
-0.00016543
-0.00208503
-8.01266e-05
-0.00230433
6.32038e-05
-0.00256131
0.00027375
-0.00289869
0.000571247
-0.00341339
0.000975426
-0.00420229
0.0014793
-0.00532156
0.00203347
-0.00687997
0.002445
-0.00873016
0.00236635
-0.00810852
0.000999734
-0.00277715
0.00438316
0.00334841
0.00334647
0.0012793
0.00360523
-0.000481472
0.00350576
-0.000428262
0.00301189
-0.0001994
0.00229352
-3.33113e-05
0.00146605
0.000107468
0.000627101
0.00021255
-0.000140609
0.000269545
-0.000767726
0.000278343
-0.00122507
0.000254376
-0.00152285
0.000226369
-0.00168802
0.000191251
-0.0017788
0.000147989
-0.00183431
0.000108417
-0.00187879
7.44951e-05
-0.00192678
4.4126e-05
-0.00198417
1.71648e-05
-0.0020504
-8.25933e-06
-0.00212145
-3.40718e-05
-0.00219664
-5.78003e-05
-0.00227833
-7.68781e-05
-0.00236998
-9.06822e-05
-0.00247475
-9.773e-05
-0.00259333
-9.44725e-05
-0.00272275
-7.52687e-05
-0.00285465
-3.35373e-05
-0.00297528
4.04993e-05
-0.00307749
0.000165412
-0.0031655
0.000361751
-0.00324902
0.000654759
-0.00333923
0.00106563
-0.00343927
0.00157933
-0.00349052
0.00208471
-0.00340326
0.00235773
-0.00298108
0.00194416
-0.00165471
-0.000326638
-0.00434743
-0.000778637
0.00421171
-0.000378115
0.000878779
-0.00109013
0.000230546
-0.00164095
0.000122552
-0.00201628
0.000175934
-0.00228791
0.000238309
-0.00247194
0.000291494
-0.00259226
0.00033287
-0.00266421
0.000341498
-0.00269792
0.000312047
-0.00270339
0.000259841
-0.00268187
0.000204845
-0.00264403
0.000153409
-0.00260544
0.000109391
-0.00257336
7.63347e-05
-0.00255136
5.24876e-05
-0.00254169
3.44533e-05
-0.00254409
1.95574e-05
-0.00255767
5.31929e-06
-0.00258113
-1.06198e-05
-0.00261451
-2.44215e-05
-0.00265686
-3.45334e-05
-0.00270717
-4.03747e-05
-0.00276374
-4.11637e-05
-0.0028231
-3.51196e-05
-0.00287924
-1.91326e-05
-0.00292345
1.06666e-05
-0.00294047
5.75146e-05
-0.00290872
0.000133653
-0.00280123
0.000254262
-0.00258283
0.000436351
-0.00222457
0.000707373
-0.00172794
0.00108269
-0.00107537
0.00143214
-4.7999e-05
0.00133036
0.00127161
0.000624552
0.00159408
-0.000649116
-0.00266042
-0.00787984
-0.0111399
-0.00687347
-0.00596717
-0.00571796
-0.00558046
-0.00539188
-0.00514254
-0.00484113
-0.00449908
-0.00414878
-0.00382802
-0.00355935
-0.00334546
-0.00318276
-0.00306383
-0.00297773
-0.00291526
-0.00287066
-0.00284082
-0.00282517
-0.00282545
-0.00283959
-0.00286393
-0.00289425
-0.00292553
-0.00295095
-0.00296061
-0.00294071
-0.00287425
-0.00273196
-0.00246939
-0.00202508
-0.00131014
-0.00022031
0.00121837
0.00255496
0.00318571
0.00254302
)
;

boundaryField
{
    floor
    {
        type            calculated;
        value           nonuniform List<scalar> 
29
(
0
0
0
0
0
0
0
0
0
0
0
0
0
0
0
0
0
0
0
0
-4.91394e-06
-1.25471e-05
-1.89917e-05
-2.4841e-05
-2.08778e-06
-3.6562e-06
-1.059e-05
-1.14197e-05
-1.0249e-05
)
;
    }
    ceiling
    {
        type            calculated;
        value           nonuniform List<scalar> 
43
(
-5.87081e-05
-5.64992e-05
-5.47255e-05
-2.75275e-05
-1.86669e-05
-1.49469e-05
-1.26474e-05
-1.10346e-05
-9.92008e-06
-9.19177e-06
-8.80165e-06
-8.71199e-06
-8.83407e-06
-9.05374e-06
-9.2988e-06
-9.54084e-06
-9.77088e-06
-9.98066e-06
-1.01557e-05
-1.02793e-05
-1.03417e-05
-1.03406e-05
-1.02871e-05
-1.01916e-05
-1.00596e-05
-9.89549e-06
-9.70198e-06
-9.48052e-06
-9.23033e-06
-8.95046e-06
-8.64509e-06
-8.31427e-06
-7.95739e-06
-7.57211e-06
-7.1534e-06
-6.54559e-06
-6.24097e-06
-6.19854e-06
-6.43221e-06
-6.04263e-06
6.23798e-06
3.82228e-06
-8.46611e-05
)
;
    }
    sWall
    {
        type            calculated;
        value           uniform -0.000278527;
    }
    nWall
    {
        type            calculated;
        value           nonuniform List<scalar> 6(-5.40283e-05 -6.44805e-05 -6.90381e-05 -8.44412e-05 -9.29383e-05 -0.000111359);
    }
    sideWalls
    {
        type            empty;
        value           nonuniform 0();
    }
    glass1
    {
        type            calculated;
        value           nonuniform List<scalar> 9(-5.97497e-05 -0.000160621 -0.000245515 -0.000317874 -0.000379393 -0.000431331 -0.000478767 -0.000536176 -0.000600273);
    }
    glass2
    {
        type            calculated;
        value           nonuniform List<scalar> 2(-0.000292136 -0.000324383);
    }
    sun
    {
        type            calculated;
        value           uniform 0;
    }
    heatsource1
    {
        type            calculated;
        value           nonuniform List<scalar> 3(2.04999e-07 2.049e-07 2.0492e-07);
    }
    heatsource2
    {
        type            calculated;
        value           nonuniform List<scalar> 4(5.143e-08 5.15211e-08 0 0);
    }
    Table_master
    {
        type            calculated;
        value           nonuniform List<scalar> 9(-1.53758e-07 -1.53857e-07 -1.53891e-07 -1.53913e-07 -1.53929e-07 -1.53939e-07 -1.53943e-07 -1.53936e-07 -1.539e-07);
    }
    Table_slave
    {
        type            calculated;
        value           nonuniform List<scalar> 9(1.53613e-07 1.53637e-07 1.53615e-07 1.53598e-07 1.53595e-07 1.53597e-07 1.53618e-07 1.53668e-07 1.53759e-07);
    }
    inlet
    {
        type            calculated;
        value           uniform -0.00624394;
    }
    outlet
    {
        type            calculated;
        value           nonuniform List<scalar> 2(0.00821707 0.00331657);
    }
}


// ************************************************************************* //
