/*--------------------------------*- C++ -*----------------------------------*\
  =========                 |
  \\      /  F ield         | OpenFOAM: The Open Source CFD Toolbox
   \\    /   O peration     | Website:  https://openfoam.org
    \\  /    A nd           | Version:  6
     \\/     M anipulation  |
\*---------------------------------------------------------------------------*/
FoamFile
{
    version     2.0;
    format      ascii;
    class       volScalarField;
    location    "1400";
    object      epsilon;
}
// * * * * * * * * * * * * * * * * * * * * * * * * * * * * * * * * * * * * * //

dimensions      [0 2 -3 0 0 0 0];

internalField   nonuniform List<scalar> 
459
(
0.000500287
0.000654282
0.000688937
0.0007946
0.000902582
0.00101268
0.0011295
0.00125004
0.00133917
0.0013772
0.00134799
0.00124645
0.00108314
0.000888123
0.000703668
4.44913e-05
7.96037e-05
0.000110238
0.000105716
9.37973e-05
8.03781e-05
6.61305e-05
5.39612e-05
4.4326e-05
3.67968e-05
3.08837e-05
2.61908e-05
2.24495e-05
1.94051e-05
1.68549e-05
1.46211e-05
1.25408e-05
1.15638e-05
9.0771e-06
0.0012809
0.00183299
0.000621279
0.000601895
0.00063418
0.000684528
0.000755766
0.000846827
0.00093118
0.000983582
0.000983916
0.000925267
0.000814634
0.000677614
0.000584166
0.000746499
0.000148855
5.67539e-05
0.000132556
0.000136068
0.000121175
0.000101351
8.35708e-05
7.38847e-05
5.96949e-05
4.73661e-05
3.76234e-05
3.0107e-05
2.43272e-05
1.98975e-05
1.64943e-05
1.39903e-05
1.24539e-05
1.18416e-05
3.47043e-05
2.26441e-05
0.00234149
0.0044901
0.00079089
0.000584939
0.000616534
0.000696851
0.000811669
0.000950916
0.0010754
0.0011506
0.00115807
0.00109764
0.000980356
0.000830397
0.000699067
0.000627984
0.000736092
0.000442367
0.000304415
0.000222788
0.000167976
0.000129901
0.000107525
0.000191481
0.000131753
9.4088e-05
6.96124e-05
5.31733e-05
4.17787e-05
3.3671e-05
2.78018e-05
2.35676e-05
1.7929e-05
1.52804e-05
6.87546e-05
3.70746e-05
0.00378772
0.00926679
0.00128622
0.000614736
0.000623695
0.000741914
0.000925779
0.00113914
0.00130151
0.00138162
0.00137576
0.00129473
0.00115174
0.000968838
0.000801677
0.000681697
0.000654189
0.00125279
0.00069421
0.00040795
0.000268113
0.000190177
0.000142972
0.000121098
0.000271452
0.000204224
0.000164073
0.00013748
0.000117258
0.000100357
8.57546e-05
7.20398e-05
5.80554e-05
3.43475e-05
2.36999e-05
0.000123951
5.05649e-05
0.00576427
0.0163653
0.00257639
0.000787154
0.00069004
0.000852879
0.00118737
0.0014918
0.00165789
0.00170609
0.00166036
0.00153691
0.00134798
0.00111758
0.000884132
0.000681252
0.000533452
0.000467484
0.00037182
0.00028583
0.000218548
0.000168798
0.000133267
0.000110851
0.000106999
9.94357e-05
9.19358e-05
8.45883e-05
7.6835e-05
6.85217e-05
6.03683e-05
5.27627e-05
4.5862e-05
3.65554e-05
2.90664e-05
8.42455e-05
5.91338e-05
9.50058e-05
0.000160642
0.000225363
0.00848673
0.024088
0.00575528
0.00163524
0.00117004
0.00136935
0.00193063
0.00217284
0.00222568
0.00217672
0.00205949
0.00187259
0.00161531
0.00130861
0.000994552
0.000718854
0.000514507
0.000387991
0.000306242
0.000242916
0.000190847
0.000150787
0.000122368
0.000104782
9.715e-05
9.42364e-05
9.2506e-05
9.00979e-05
8.57945e-05
7.85209e-05
6.82491e-05
5.77436e-05
4.83407e-05
4.01806e-05
3.62682e-05
5.81167e-05
6.12463e-05
7.30973e-05
0.000300698
0.000260064
0.0115322
0.028613
0.0115879
0.00521841
0.00379711
0.00374977
0.0036103
0.00336935
0.00311038
0.00286713
0.00261914
0.00232369
0.00195781
0.00154064
0.00112404
0.000767334
0.000512448
0.000357434
0.000267463
0.000207496
0.000162798
0.000131049
0.000111032
0.000101123
9.92588e-05
0.000101884
0.000105951
0.00010999
0.000112785
0.000112314
0.000104443
9.16788e-05
7.93272e-05
6.91683e-05
6.67854e-05
7.97692e-05
0.000103413
0.000168003
0.000418963
0.000386032
0.0121254
0.0301407
0.017231
0.0122964
0.0096135
0.00752099
0.00597927
0.00493525
0.00425131
0.0037749
0.00336159
0.00290265
0.00236076
0.00177372
0.00121543
0.000761016
0.000464938
0.000298947
0.00021339
0.000164715
0.000132854
0.000113266
0.000103533
0.000101572
0.000105458
0.000113351
0.000124143
0.000137731
0.000154351
0.000173876
0.000194986
0.000208409
0.000219226
0.000243977
0.000295429
0.000451732
0.000833962
0.00165529
0.00558576
0.00133287
0.0111205
0.0182646
0.014692
0.0112125
0.00877071
0.00721375
0.00626357
0.00569208
0.00529478
0.00488591
0.00433021
0.00357688
0.00269828
0.00183927
0.00110884
0.000576808
0.000334795
0.000220775
0.000162691
0.000129881
0.00011077
0.000101101
9.84437e-05
0.000101118
0.00010804
0.000118748
0.000133549
0.000153569
0.000180715
0.000217757
0.000268556
0.000338211
0.000434521
0.00057848
0.00079106
0.00108044
0.0014147
0.00171381
0.00193918
0.0010678
0.00387862
0.00675535
0.00845121
0.00886773
0.00882172
0.0083611
0.00743529
0.00613993
0.00465282
0.00312881
0.00188972
0.00110909
0.000633407
0.000367593
0.000240559
0.000177983
0.00014443
0.000124644
0.000112895
0.000106883
0.000105246
0.000107079
0.000111982
0.000120016
0.000131691
0.000148059
0.000170893
0.000203033
0.000248981
0.000315064
0.000408969
0.000541296
0.000720635
0.000941398
0.00117696
0.00140049
0.00124623
0.000610401
0.00372121
0.00828555
0.00839494
0.00700485
0.00615452
0.00524123
0.0041929
0.00313987
0.0021929
0.00141862
0.000871131
0.000540774
0.000356462
0.000260533
0.000213125
0.000188134
0.000172654
0.000161144
0.00015154
0.000143686
0.00013815
0.000135151
0.000135036
0.000138394
0.00014606
0.000159152
0.000179226
0.000208547
0.000250534
0.000309668
0.000392088
0.000504408
0.000649461
0.00082087
0.00100307
0.00126294
0.000670248
0.000673148
0.00266632
0.00317986
0.00358847
0.00449913
0.00403085
0.00359493
0.00328184
0.00286053
0.00234334
0.00180446
0.00130371
0.000890987
0.000593593
0.00040345
0.000288816
0.000219911
0.00017745
0.00015056
0.000133391
0.000122896
0.000117472
0.000115897
0.00011706
0.000120752
0.000127003
0.000136041
0.000148287
0.00016443
0.000185617
0.000213796
0.000249755
0.000295724
0.000354245
0.000428584
0.000521968
0.000645528
0.000681515
0.000517669
0.000417577
0.000603167
)
;

boundaryField
{
    floor
    {
        Cmu             0.09;
        kappa           0.41;
        E               9.8;
        type            epsilonWallFunction;
        value           nonuniform List<scalar> 
29
(
0.000703668
4.44913e-05
7.96037e-05
0.000110238
0.000105716
9.37973e-05
8.03781e-05
6.61305e-05
5.39612e-05
4.4326e-05
3.67968e-05
3.08837e-05
2.61908e-05
2.24495e-05
1.94051e-05
1.68549e-05
1.46211e-05
1.25408e-05
1.15638e-05
9.0771e-06
9.0771e-06
2.26441e-05
3.70746e-05
5.05649e-05
0.000703668
4.44913e-05
5.67539e-05
0.000442367
0.00125279
)
;
    }
    ceiling
    {
        Cmu             0.09;
        kappa           0.41;
        E               9.8;
        type            epsilonWallFunction;
        value           nonuniform List<scalar> 
43
(
0.00266632
0.00317986
0.00358847
0.00449913
0.00403085
0.00359493
0.00328184
0.00286053
0.00234334
0.00180446
0.00130371
0.000890987
0.000593593
0.00040345
0.000288816
0.000219911
0.00017745
0.00015056
0.000133391
0.000122896
0.000117472
0.000115897
0.00011706
0.000120752
0.000127003
0.000136041
0.000148287
0.00016443
0.000185617
0.000213796
0.000249755
0.000295724
0.000354245
0.000428584
0.000521968
0.000645528
0.000681515
0.000517669
0.000417577
0.000603167
0.0111205
0.0182646
0.00372121
)
;
    }
    sWall
    {
        Cmu             0.09;
        kappa           0.41;
        E               9.8;
        type            epsilonWallFunction;
        value           uniform 0.00266632;
    }
    nWall
    {
        Cmu             0.09;
        kappa           0.41;
        E               9.8;
        type            epsilonWallFunction;
        value           nonuniform List<scalar> 6(0.000225363 0.000260064 0.000386032 0.000610401 0.000673148 0.000603167);
    }
    sideWalls
    {
        type            empty;
    }
    glass1
    {
        Cmu             0.09;
        kappa           0.41;
        E               9.8;
        type            epsilonWallFunction;
        value           nonuniform List<scalar> 9(0.000500287 0.0012809 0.00234149 0.00378772 0.00576427 0.00848673 0.0115322 0.0121254 0.0111205);
    }
    glass2
    {
        Cmu             0.09;
        kappa           0.41;
        E               9.8;
        type            epsilonWallFunction;
        value           nonuniform List<scalar> 2(0.00133287 0.0010678);
    }
    sun
    {
        Cmu             0.09;
        kappa           0.41;
        E               9.8;
        type            epsilonWallFunction;
        value           nonuniform List<scalar> 
14
(
0.000500287
0.000654282
0.000688937
0.0007946
0.000902582
0.00101268
0.0011295
0.00125004
0.00133917
0.0013772
0.00134799
0.00124645
0.00108314
0.000888123
)
;
    }
    heatsource1
    {
        Cmu             0.09;
        kappa           0.41;
        E               9.8;
        type            epsilonWallFunction;
        value           nonuniform List<scalar> 3(9.50058e-05 0.000160642 0.000225363);
    }
    heatsource2
    {
        Cmu             0.09;
        kappa           0.41;
        E               9.8;
        type            epsilonWallFunction;
        value           nonuniform List<scalar> 4(0.000746499 0.000148855 0.000148855 0.000736092);
    }
    Table_master
    {
        Cmu             0.09;
        kappa           0.41;
        E               9.8;
        type            epsilonWallFunction;
        value           nonuniform List<scalar> 9(0.000191481 0.000131753 9.4088e-05 6.96124e-05 5.31733e-05 4.17787e-05 3.3671e-05 2.78018e-05 2.35676e-05);
    }
    Table_slave
    {
        Cmu             0.09;
        kappa           0.41;
        E               9.8;
        type            epsilonWallFunction;
        value           nonuniform List<scalar> 9(0.000271452 0.000204224 0.000164073 0.00013748 0.000117258 0.000100357 8.57546e-05 7.20398e-05 5.80554e-05);
    }
    inlet
    {
        type            turbulentMixingLengthDissipationRateInlet;
        mixingLength    0.01;
        phi             phi;
        k               k;
        value           uniform 0.000101881;
    }
    outlet
    {
        type            zeroGradient;
    }
}


// ************************************************************************* //
