/*--------------------------------*- C++ -*----------------------------------*\
  =========                 |
  \\      /  F ield         | OpenFOAM: The Open Source CFD Toolbox
   \\    /   O peration     | Website:  https://openfoam.org
    \\  /    A nd           | Version:  6
     \\/     M anipulation  |
\*---------------------------------------------------------------------------*/
FoamFile
{
    version     2.0;
    format      ascii;
    class       volScalarField;
    location    "1000";
    object      alphat;
}
// * * * * * * * * * * * * * * * * * * * * * * * * * * * * * * * * * * * * * //

dimensions      [1 -1 -1 0 0 0 0];

internalField   nonuniform List<scalar> 
459
(
0.00131641
0.0014418
0.00146798
0.00154002
0.00160753
0.00167136
0.00173472
0.00179393
0.00183432
0.00184921
0.00183264
0.00178085
0.00169301
0.00157514
0.00144434
0.000593651
0.00071847
0.000805397
0.000800592
0.000773142
0.000737084
0.000691703
0.000646686
0.000605787
0.000569433
0.000537205
0.000508545
0.000483101
0.000460223
0.00043913
0.000418815
0.000397889
0.000386075
0.000354923
0.00179621
0.0044878
0.00432949
0.00505318
0.00576345
0.00646608
0.00706976
0.00753974
0.00795679
0.00828823
0.00849017
0.00851496
0.00828953
0.00762808
0.00580883
0.00148234
0.000821271
0.000635736
0.00131966
0.00183165
0.00220643
0.00240629
0.0023975
0.00192298
0.0016591
0.00147065
0.00132592
0.00121071
0.00111674
0.00103448
0.000958184
0.000884648
0.000819609
0.000761293
0.000914975
0.000475544
0.00219189
0.00613846
0.00539542
0.00677901
0.00747741
0.00799874
0.00840514
0.00874325
0.00910022
0.00946114
0.00978078
0.0100026
0.0100613
0.00985409
0.00909568
0.00689592
0.00150274
0.00124047
0.00179789
0.00231179
0.00277989
0.00309953
0.00301008
0.000982084
0.00086722
0.000775056
0.000700795
0.000640372
0.000590669
0.000549465
0.000515325
0.000487705
0.000527209
0.000609453
0.00104004
0.000557791
0.00256842
0.00782452
0.00545155
0.00718668
0.00780705
0.0080407
0.00820958
0.00841306
0.00871761
0.00910355
0.00951469
0.00988122
0.0101305
0.0101795
0.00994829
0.00910235
0.00634402
0.00177439
0.00222524
0.00289209
0.00353548
0.00404089
0.00434027
0.0040414
0.00110448
0.00100687
0.000937952
0.000885562
0.000840485
0.000798444
0.000757914
0.000715217
0.000665484
0.000624297
0.000643047
0.00122891
0.000617821
0.00294962
0.00996169
0.0060461
0.00697013
0.00775607
0.00784755
0.00782581
0.00797249
0.00825041
0.00865734
0.00912563
0.00956092
0.00985967
0.00995171
0.00982432
0.00943723
0.00857159
0.00707553
0.00655953
0.00638778
0.00632069
0.00626649
0.00617237
0.00589948
0.00494444
0.00449765
0.00423908
0.00403684
0.00382259
0.00351575
0.00310251
0.00260801
0.00206733
0.00153324
0.00113378
0.00119528
0.000813833
0.000752968
0.000898048
0.00100617
0.0033512
0.0122706
0.00829585
0.00709522
0.00765354
0.00785605
0.00777004
0.00787175
0.00808971
0.00846287
0.00895534
0.00944202
0.0097724
0.00984524
0.00966061
0.00931047
0.00890592
0.00850923
0.00827041
0.00806103
0.00781261
0.00753525
0.00723764
0.00689293
0.00643356
0.00604395
0.00571205
0.00540353
0.00509703
0.00476887
0.0043466
0.00381208
0.00316893
0.00246291
0.00184388
0.00136731
0.00108549
0.000961784
0.00139206
0.0010567
0.00370759
0.0138365
0.0114407
0.0091442
0.00874077
0.00848806
0.00817027
0.00803043
0.00815395
0.00854242
0.00909913
0.00964444
0.00998511
0.0100028
0.00971786
0.00930252
0.00899917
0.00890423
0.008855
0.00865692
0.00829599
0.00784324
0.00735039
0.00684727
0.00636151
0.00594444
0.00558388
0.00526078
0.00497003
0.00471644
0.00449662
0.00414605
0.00363409
0.00301171
0.00242533
0.00189534
0.00155766
0.00150184
0.00158432
0.00122555
0.00376638
0.0120846
0.0109009
0.0101321
0.00936898
0.00858173
0.00806869
0.00796948
0.00828057
0.0088951
0.00962042
0.0102173
0.0104824
0.0103359
0.00987045
0.00936123
0.00910669
0.00908012
0.00889517
0.00844057
0.00781725
0.00713015
0.00646187
0.00587538
0.00540087
0.00502927
0.00473072
0.00448911
0.004304
0.00418303
0.00413448
0.00411698
0.00381889
0.0034083
0.00306251
0.00292977
0.00316661
0.00387254
0.00484645
0.0018766
0.00365532
0.00431512
0.00476691
0.00487435
0.00510974
0.00563547
0.00647579
0.00757916
0.00880533
0.00995675
0.0108218
0.0112184
0.0110755
0.0105028
0.00978765
0.00931854
0.00898136
0.00859818
0.00800714
0.00723831
0.00641231
0.00564761
0.00501764
0.00453841
0.00418299
0.00391093
0.00369075
0.00350508
0.00334382
0.00319878
0.00306288
0.00293739
0.00283961
0.0027771
0.00277211
0.00280843
0.00280076
0.00267505
0.00248056
0.00172261
0.00176794
0.00438873
0.00783345
0.0100772
0.0115656
0.0124882
0.0128896
0.0128512
0.0124632
0.0118169
0.0108977
0.00989967
0.00907985
0.00846549
0.00783021
0.00707753
0.00625791
0.00545302
0.00474106
0.00418664
0.00378298
0.00349235
0.00327674
0.00310946
0.00297554
0.0028683
0.00278618
0.00273144
0.00271007
0.00272091
0.00274878
0.00278897
0.00282745
0.0028266
0.00273068
0.00252202
0.00221325
0.00138876
0.00263001
0.00791233
0.0109327
0.0117076
0.0119622
0.0118195
0.0113032
0.0105509
0.00969224
0.00884284
0.00804084
0.00733517
0.00671583
0.00608773
0.00542544
0.00478964
0.00422831
0.00375985
0.0033826
0.00309702
0.00288687
0.00273345
0.00262472
0.0025545
0.00251927
0.00251513
0.00253579
0.00257278
0.00263953
0.00272932
0.00283657
0.00295123
0.00305295
0.00312591
0.00311147
0.00310851
0.00278577
0.00140623
0.00232295
0.0024636
0.00256491
0.00274232
0.00262847
0.00252458
0.00244389
0.00232888
0.0021734
0.00198638
0.00177704
0.00156254
0.00136731
0.00120846
0.00108798
0.000999062
0.00093367
0.000885773
0.000851858
0.000830199
0.000819888
0.000817682
0.00082215
0.000832519
0.000848356
0.000869496
0.000895997
0.000928204
0.00096694
0.00101365
0.00106722
0.00112826
0.00119711
0.00127421
0.00135932
0.00147407
0.0015045
0.0014662
0.00136755
0.00126067
)
;

boundaryField
{
    floor
    {
        type            compressible::alphatWallFunction;
        Prt             0.85;
        value           nonuniform List<scalar> 
29
(
0.00020344
8.33881e-05
0.000101872
0.000114514
0.00011382
0.000109844
0.000104595
9.79449e-05
9.12954e-05
8.52051e-05
7.97492e-05
7.48763e-05
7.05124e-05
6.66125e-05
6.30835e-05
5.98104e-05
5.66391e-05
5.33516e-05
5.1486e-05
4.65311e-05
4.65305e-05
6.54491e-05
7.79927e-05
8.70022e-05
0.000203438
8.33871e-05
8.9668e-05
0.000175681
0.000247488
)
;
    }
    ceiling
    {
        type            compressible::alphatWallFunction;
        Prt             0.85;
        value           nonuniform List<scalar> 
43
(
0.000318653
0.000336621
0.0003495
0.000372078
0.000357765
0.000344617
0.000334362
0.000319671
0.000299679
0.000275423
0.000247971
0.000219469
0.000193147
0.000171417
0.000154719
0.000142258
0.000133012
0.000126191
0.000121335
0.000118222
0.000116736
0.000116418
0.000117062
0.000118555
0.000120832
0.000123863
0.00012765
0.000132235
0.000137725
0.000144311
0.000151822
0.000160326
0.000169856
0.000180454
0.000192069
0.0002076
0.000211696
0.00020654
0.000193189
0.000178602
0.000485561
0.000565527
0.000357511
)
;
    }
    sWall
    {
        type            compressible::alphatWallFunction;
        Prt             0.85;
        value           uniform 0.000317378;
    }
    nWall
    {
        type            compressible::alphatWallFunction;
        Prt             0.85;
        value           nonuniform List<scalar> 6(0.000142909 0.000149992 0.000173404 0.00019572 0.000198084 0.000178253);
    }
    sideWalls
    {
        type            empty;
    }
    glass1
    {
        type            compressible::alphatWallFunction;
        Prt             0.85;
        value           nonuniform List<scalar> 9(0.000181349 0.000244744 0.000295762 0.000343492 0.000391135 0.000440684 0.000484198 0.000491481 0.000478247);
    }
    glass2
    {
        type            compressible::alphatWallFunction;
        Prt             0.85;
        value           nonuniform List<scalar> 2(0.000258939 0.000238827);
    }
    sun
    {
        type            compressible::alphatWallFunction;
        Prt             0.85;
        value           nonuniform List<scalar> 
14
(
0.0001861
0.000203105
0.000206636
0.00021632
0.00022535
0.000233848
0.000242248
0.000250068
0.000255386
0.000257343
0.000255163
0.000248341
0.000236717
0.000221018
)
;
    }
    heatsource1
    {
        type            compressible::alphatWallFunction;
        Prt             0.85;
        value           nonuniform List<scalar> 3(0.000107066 0.000127971 0.00014329);
    }
    heatsource2
    {
        type            compressible::alphatWallFunction;
        Prt             0.85;
        value           nonuniform List<scalar> 4(0.000208743 0.000116962 0.000116961 0.000211488);
    }
    Table_master
    {
        type            compressible::alphatWallFunction;
        Prt             0.85;
        value           nonuniform List<scalar> 9(0.000139893 0.000123564 0.000110277 9.94328e-05 9.05069e-05 8.30871e-05 7.68776e-05 7.16889e-05 6.74594e-05);
    }
    Table_slave
    {
        type            compressible::alphatWallFunction;
        Prt             0.85;
        value           nonuniform List<scalar> 9(0.000157052 0.000143389 0.00013365 0.00012619 0.00011973 0.000113668 0.000107787 0.000101551 9.42305e-05);
    }
    inlet
    {
        type            fixedValue;
        value           uniform 1.94e-05;
    }
    outlet
    {
        type            zeroGradient;
    }
}


// ************************************************************************* //
