/*--------------------------------*- C++ -*----------------------------------*\
  =========                 |
  \\      /  F ield         | OpenFOAM: The Open Source CFD Toolbox
   \\    /   O peration     | Website:  https://openfoam.org
    \\  /    A nd           | Version:  6
     \\/     M anipulation  |
\*---------------------------------------------------------------------------*/
FoamFile
{
    version     2.0;
    format      ascii;
    class       surfaceScalarField;
    location    "1000";
    object      phi;
}
// * * * * * * * * * * * * * * * * * * * * * * * * * * * * * * * * * * * * * //

dimensions      [1 0 -1 0 0 0 0];

internalField   nonuniform List<scalar> 
852
(
-0.0030302
0.00309028
-0.00409252
0.00106233
-0.00488597
0.000793463
-0.00549733
0.000611375
-0.00589475
0.000397438
-0.0060549
0.000160163
-0.00595695
-9.7946e-05
-0.00558833
-0.000368603
-0.00497013
-0.000618187
-0.00416179
-0.000808327
-0.00324943
-0.000912351
-0.00232614
-0.000923277
-0.00147316
-0.000852964
-0.000722174
-0.000750975
-0.000720084
-0.000783379
0.000787173
-0.000423462
-0.000359908
0.000249983
-0.000673436
0.000770803
-0.000520811
0.00111459
-0.000343774
0.00132704
-0.000212449
0.00144067
-0.000113615
0.0014952
-5.45251e-05
0.00152464
-2.94291e-05
0.00154168
-1.70325e-05
0.00155023
-8.53925e-06
0.00155164
-1.40364e-06
0.00154413
7.5148e-06
0.00151918
2.49554e-05
0.0014538
6.53873e-05
0.00130973
0.000144077
0.00107652
0.000233221
0.00079749
0.000279034
0.000802627
-0.00215659
0.00540817
-0.00319112
0.00209688
-0.00400598
0.00160834
-0.00460649
0.0012119
-0.00499622
0.000787179
-0.00516121
0.000325167
-0.00507801
-0.000181132
-0.00473945
-0.000707157
-0.00417824
-0.00117938
-0.00346076
-0.00152579
-0.00267073
-0.00170237
-0.00188768
-0.00170632
-0.00118304
-0.00155759
-0.000640172
-0.00129383
-0.000422566
-0.000937678
-4.42514e-06
-0.000418181
-4.46624e-06
0.000426883
0.000371134
0.000850995
-0.000784011
0.00110283
-0.00092526
0.0013247
-0.00074267
0.00149368
-0.00051275
0.00159363
-0.000312386
0.00160857
-0.000128553
0.00161198
-5.79267e-05
0.00161644
-3.38749e-05
0.0016202
-2.07902e-05
0.00162263
-1.09648e-05
0.00162367
-2.43374e-06
0.00162244
8.75628e-06
0.00161524
3.21568e-05
0.00157178
0.000108855
0.00138628
0.000329589
0.00107085
0.000548654
0.000684802
0.00066509
0.00150038
-0.00150607
0.00716049
-0.00239958
0.0029904
-0.00311899
0.00232775
-0.00362845
0.00172137
-0.00396244
0.00112118
-0.00410215
0.000464894
-0.00400461
-0.000278662
-0.00366246
-0.00104929
-0.00313131
-0.00171052
-0.00248717
-0.00216991
-0.00180929
-0.00238024
-0.00115697
-0.00235862
-0.000578115
-0.00213643
-0.000116572
-0.00175536
0.000192489
-0.00124673
0.000373683
-0.000599363
0.000369229
0.00158485
-0.0012023
0.00181131
-0.00101046
0.00176737
-0.000881307
0.00175744
-0.00073273
0.00178056
-0.000535868
0.00179983
-0.000331646
0.00167144
0.00161368
0.00157996
0.00155934
0.00154853
0.00154626
0.00155518
0.0015875
0.00169651
0.00138677
0.000639335
0.00101944
0.000915993
0.000577188
0.00110735
0.00209706
-0.00104883
0.00852782
-0.00175775
0.00369934
-0.00222694
0.00279696
-0.00255143
0.00204587
-0.00275649
0.00132626
-0.00280575
0.000514169
-0.00263244
-0.000451966
-0.00225358
-0.00142813
-0.00175777
-0.00220632
-0.00121928
-0.00270838
-0.000698602
-0.0029009
-0.000224068
-0.00283314
0.000189222
-0.0025497
0.000538033
-0.00210416
0.00085145
-0.00156013
0.0012241
-0.000972002
0.00205161
-0.000458272
0.00254907
-0.000487058
0.00210309
-0.000756311
0.00196649
-0.000873846
0.00185487
-0.000769673
0.00176069
-0.000638544
0.00171362
-0.000488793
0.00169974
-0.000317754
0.001841
-0.000141406
0.0019366
-9.57475e-05
0.00201586
-7.94081e-05
0.00207694
-6.1233e-05
0.00210253
-2.5735e-05
0.00206857
3.3814e-05
0.00194888
0.000119536
0.00171033
0.000238404
0.00129641
0.000413772
0.0011416
0.000794152
0.000810715
0.00124688
0.00030821
0.00160986
0.00243073
-0.000733049
0.00964072
-0.00127186
0.00423816
-0.00135656
0.00288168
-0.00139459
0.00208391
-0.00138551
0.00131719
-0.00123339
0.000362061
-0.00089845
-0.000786896
-0.000478258
-0.00184831
-6.35973e-05
-0.00262096
0.000295757
-0.00306772
0.000584957
-0.00319009
0.000806917
-0.00305508
0.000978951
-0.00272172
0.0011279
-0.0022531
0.00128385
-0.00171607
0.00149435
-0.00118249
0.00179773
-0.000761635
0.00192399
-0.000613315
0.00182564
-0.000657947
0.00164044
-0.000688638
0.00148976
-0.000618989
0.0013703
-0.000519068
0.00129333
-0.000411821
0.00127331
-0.000297731
0.00133473
-0.000202812
0.00140392
-0.000164941
0.00147705
-0.00015253
0.00154836
-0.000132535
0.00160428
-8.16488e-05
0.00162184
1.62504e-05
0.00157917
0.000162212
0.0014658
0.000351777
0.00128523
0.000594349
0.0011218
0.000957589
0.00094027
0.00142841
0.000527058
0.00202308
0.000385586
0.0025722
-0.00111994
0.00150533
-0.00158192
0.000461779
-0.00152743
-0.000637995
0.0107103
-0.00100469
0.00460487
-0.000551434
0.00242844
-0.000130413
0.0016629
0.0002255
0.000961286
0.000701907
-0.000114335
0.00122089
-0.00130587
0.00160867
-0.00223608
0.0018403
-0.00285257
0.0019303
-0.0031577
0.00191847
-0.00317823
0.00183376
-0.00297036
0.00171091
-0.00259886
0.00158686
-0.00212903
0.00149248
-0.00162168
0.00145023
-0.00114023
0.00145214
-0.000763536
0.00140455
-0.000565723
0.0012632
-0.000516586
0.00107179
-0.000497219
0.000905609
-0.000452804
0.000782033
-0.000395486
0.000707471
-0.000337253
0.000690839
-0.000281093
0.00072959
-0.00024156
0.000796905
-0.000232252
0.000879852
-0.000235474
0.000972211
-0.000224891
0.00106644
-0.00017587
0.00114698
-6.4291e-05
0.00119376
0.000115431
0.00120597
0.000339571
0.00119327
0.000607057
0.001206
0.000944858
0.0012977
0.00133672
0.00147623
0.00184454
0.00196579
0.00208265
0.00224902
0.0012221
0.00186246
0.000848349
0.000400227
-0.000669906
0.0118591
-0.000532617
0.00446759
0.000687206
0.00120862
0.00159412
0.000756005
0.00241677
0.000138641
0.00318548
-0.000883029
0.00367453
-0.00179491
0.00387037
-0.0024319
0.0038081
-0.00279028
0.00354566
-0.00289524
0.00315186
-0.00278441
0.00268955
-0.00250804
0.00221556
-0.00212485
0.00177747
-0.00169094
0.00140628
-0.00125048
0.00111614
-0.000850093
0.00090163
-0.000549018
0.000719382
-0.000383468
0.00053214
-0.000329338
0.000350326
-0.000315399
0.000200558
-0.000303031
9.40634e-05
-0.000288987
3.36968e-05
-0.000276882
2.17506e-05
-0.000269144
5.23402e-05
-0.000272146
0.000109598
-0.000289506
0.000183388
-0.000309261
0.000272692
-0.000314193
0.000382098
-0.000285274
0.000516115
-0.000198306
0.000655404
-2.38549e-05
0.00078943
0.000205547
0.000933445
0.000463044
0.00112806
0.000750244
0.00142653
0.00103826
0.00190527
0.00136581
0.00264414
0.00134379
0.00324332
0.000622927
0.00330472
0.000786952
0.00377442
0.00275232
0.00964304
0.00352042
0.0036995
0.0041059
0.000623165
0.00505086
-0.000188949
0.00595861
-0.000769098
0.006459
-0.0013834
0.00652075
-0.00185664
0.00620882
-0.00211995
0.00560929
-0.00219073
0.00481915
-0.00210509
0.00393624
-0.00190148
0.00304457
-0.00161636
0.00221172
-0.00129199
0.0014861
-0.000965306
0.000891176
-0.000655548
0.000434684
-0.000393596
0.000111716
-0.000226046
-0.000116091
-0.000155657
-0.000293177
-0.000152247
-0.00043766
-0.000170912
-0.000550637
-0.00019005
-0.000631782
-0.000207839
-0.000682513
-0.000226149
-0.00070475
-0.000246904
-0.000704304
-0.00027259
-0.000691078
-0.00030273
-0.000670426
-0.000329912
-0.000640457
-0.00034416
-0.000590859
-0.000334871
-0.000499611
-0.000289552
-0.000333659
-0.000189805
-0.000124132
-3.97848e-06
0.000109235
0.00022968
0.000395348
0.000464134
0.000738995
0.000694617
0.00118907
0.000915731
0.00165313
0.000879732
0.00176996
0.000506101
0.000936225
0.00162069
0.00500702
0.0102374
0.0139332
0.012993
0.00156332
0.0123655
0.000438548
0.0116447
-4.82654e-05
0.0106353
-0.000373898
0.00935416
-0.000575515
0.00791138
-0.000677143
0.00640587
-0.0006852
0.00492337
-0.00062257
0.00354267
-0.000520772
0.00231779
-0.000391467
0.0012836
-0.000257793
0.00045185
-0.000133553
-0.000170865
-3.28321e-05
-0.000583062
1.86035e-05
-0.000830035
2.09296e-05
-0.000987427
1.73713e-06
-0.00110772
-3.19544e-05
-0.00120897
-6.96543e-05
-0.0012951
-0.000103923
-0.00136818
-0.000134751
-0.00143133
-0.000163004
-0.00148852
-0.000189712
-0.00154592
-0.000215182
-0.00161159
-0.000237056
-0.00169272
-0.000248784
-0.00179636
-0.000240515
-0.0019314
-0.000199831
-0.00210944
-0.00011151
-0.00233938
4.01342e-05
-0.00260478
0.000261417
-0.00294593
0.000570833
-0.00346883
0.000987044
-0.00427346
0.00149925
-0.00541261
0.00205488
-0.00699214
0.00245927
-0.00885456
0.00236852
-0.00820405
0.00097019
-0.00286755
0.00436921
0.00342084
0.00336817
0.00143962
0.00368621
-0.000366283
0.00365571
-0.000343389
0.00322695
-0.000146756
0.00256419
-1.4392e-05
0.00177891
0.000100083
0.000964001
0.000192332
0.000194525
0.000248701
-0.000461549
0.000264603
-0.000962783
0.00024344
-0.00130983
0.000213498
-0.00152213
0.000179461
-0.00164224
0.000138717
-0.00171825
9.69439e-05
-0.00177618
5.96699e-05
-0.00183435
2.621e-05
-0.00189911
-4.88526e-06
-0.00196684
-3.61949e-05
-0.00203791
-6.36847e-05
-0.00211487
-8.60337e-05
-0.00220111
-0.000103475
-0.00230034
-0.000115946
-0.00241549
-0.000121908
-0.00254667
-0.000117601
-0.00269015
-9.70341e-05
-0.00283699
-5.29966e-05
-0.00297042
2.19271e-05
-0.00308073
0.000150442
-0.0031727
0.000353388
-0.003258
0.000656135
-0.00334946
0.00107851
-0.00345228
0.00160207
-0.00350598
0.00210858
-0.00341417
0.00236746
-0.0029702
0.00192455
-0.0016377
-0.000362301
-0.00441972
-0.000831916
0.00433624
-0.000344705
0.000952417
-0.000983023
0.000272032
-0.00146682
0.000140399
-0.00179256
0.000178979
-0.00203913
0.000232173
-0.00222007
0.000281015
-0.00235108
0.00032334
-0.00243987
0.000337483
-0.00249093
0.000315662
-0.00251408
0.000266591
-0.00251065
0.000210063
-0.00248698
0.000155792
-0.0024561
0.00010784
-0.00242912
6.99603e-05
-0.00241135
4.19078e-05
-0.0024056
2.04611e-05
-0.00241304
2.54658e-06
-0.0024312
-1.80303e-05
-0.00246039
-3.44978e-05
-0.00250002
-4.64e-05
-0.0025494
-5.40936e-05
-0.00260766
-5.76851e-05
-0.00267316
-5.64084e-05
-0.00274242
-4.83323e-05
-0.00280921
-3.02457e-05
-0.00286486
2.65211e-06
-0.00289456
5.16329e-05
-0.00287239
0.000128277
-0.00277086
0.000251855
-0.00255379
0.000439067
-0.00219273
0.000717452
-0.00169344
0.00110279
-0.00104134
0.00145648
-9.88888e-06
0.00133601
0.00129428
0.00062038
0.00159046
-0.000658477
-0.00273514
-0.00794589
-0.0112067
-0.00681469
-0.00583331
-0.00554126
-0.00538462
-0.00519175
-0.00494734
-0.00465523
-0.00432152
-0.00397405
-0.00364845
-0.00337172
-0.00315118
-0.00298455
-0.00286552
-0.00278405
-0.00273036
-0.00269787
-0.00268314
-0.0026889
-0.0027111
-0.00274524
-0.00278716
-0.00283281
-0.00287737
-0.00291407
-0.00293295
-0.00291923
-0.00285687
-0.00271824
-0.00245643
-0.00200785
-0.00128133
-0.000169975
0.00129437
0.00263792
0.00326585
0.00261523
)
;

boundaryField
{
    floor
    {
        type            calculated;
        value           nonuniform List<scalar> 
29
(
0
0
0
0
0
0
0
0
0
0
0
0
0
0
0
0
0
0
0
0
-5.13135e-06
-1.29433e-05
-1.94874e-05
-2.5451e-05
-2.07894e-06
-3.78508e-06
-1.08339e-05
-1.14111e-05
-1.03886e-05
)
;
    }
    ceiling
    {
        type            calculated;
        value           nonuniform List<scalar> 
43
(
-5.98261e-05
-5.75878e-05
-5.57939e-05
-2.89741e-05
-2.00213e-05
-1.62493e-05
-1.3896e-05
-1.22418e-05
-1.11027e-05
-1.03676e-05
-9.99013e-06
-9.93973e-06
-1.01424e-05
-1.04741e-05
-1.08377e-05
-1.11876e-05
-1.15077e-05
-1.17893e-05
-1.20208e-05
-1.2187e-05
-1.22738e-05
-1.22956e-05
-1.22593e-05
-1.217e-05
-1.20326e-05
-1.18509e-05
-1.16285e-05
-1.13675e-05
-1.1068e-05
-1.07258e-05
-1.03524e-05
-9.949e-06
-9.51757e-06
-9.05815e-06
-8.5688e-06
-7.85977e-06
-7.54502e-06
-7.54075e-06
-7.85743e-06
-7.58872e-06
6.1184e-06
3.71102e-06
-8.34762e-05
)
;
    }
    sWall
    {
        type            calculated;
        value           uniform -0.000279721;
    }
    nWall
    {
        type            calculated;
        value           nonuniform List<scalar> 6(-5.46939e-05 -6.51958e-05 -6.94673e-05 -8.5532e-05 -9.412e-05 -0.000112319);
    }
    sideWalls
    {
        type            empty;
        value           nonuniform 0();
    }
    glass1
    {
        type            calculated;
        value           nonuniform List<scalar> 9(-6.00762e-05 -0.000161277 -0.000246241 -0.000318495 -0.000379835 -0.000431605 -0.000478864 -0.000536241 -0.000600434);
    }
    glass2
    {
        type            calculated;
        value           nonuniform List<scalar> 2(-0.000296379 -0.000329481);
    }
    sun
    {
        type            calculated;
        value           uniform 0;
    }
    heatsource1
    {
        type            calculated;
        value           nonuniform List<scalar> 3(2.05132e-07 2.05017e-07 2.05036e-07);
    }
    heatsource2
    {
        type            calculated;
        value           nonuniform List<scalar> 4(5.14261e-08 5.15502e-08 0 0);
    }
    Table_master
    {
        type            calculated;
        value           nonuniform List<scalar> 9(-1.53839e-07 -1.53929e-07 -1.53961e-07 -1.53983e-07 -1.53999e-07 -1.5401e-07 -1.54014e-07 -1.54009e-07 -1.53976e-07);
    }
    Table_slave
    {
        type            calculated;
        value           nonuniform List<scalar> 9(1.53698e-07 1.53718e-07 1.53693e-07 1.53672e-07 1.53665e-07 1.53669e-07 1.53687e-07 1.53736e-07 1.53827e-07);
    }
    inlet
    {
        type            calculated;
        value           uniform -0.00622673;
    }
    outlet
    {
        type            calculated;
        value           nonuniform List<scalar> 2(0.00828543 0.00331841);
    }
}


// ************************************************************************* //
