// -*- C++ -*-
// File generated by PyFoam - sorry for the ugliness

FoamFile
{
 version 2.0;
 format ascii;
 class volScalarField;
 location "1000";
 object T;
}

dimensions [ 0 0 0 1 0 0 0 ];

internalField nonuniform List<scalar> 459
(
  302.639
  302.358
  302.344
  302.34
  302.337
  302.333
  302.328
  302.323
  302.315
  302.305
  302.294
  302.286
  302.281
  302.28
  302.287
  302.407
  302.382
  302.374
  302.378
  302.382
  302.386
  302.391
  302.395
  302.398
  302.402
  302.406
  302.41
  302.413
  302.417
  302.421
  302.424
  302.429
  302.435
  302.458
  302.826
  302.399
  302.372
  302.373
  302.376
  302.376
  302.374
  302.366
  302.351
  302.33
  302.306
  302.286
  302.273
  302.267
  302.266
  302.262
  302.247
  302.409
  302.367
  302.361
  302.364
  302.37
  302.375
  302.376
  302.377
  302.377
  302.378
  302.378
  302.378
  302.378
  302.379
  302.381
  302.384
  302.39
  302.4
  302.439
  303.022
  302.452
  302.406
  302.414
  302.427
  302.437
  302.441
  302.433
  302.409
  302.37
  302.329
  302.294
  302.272
  302.263
  302.263
  302.266
  302.265
  302.346
  302.345
  302.354
  302.367
  302.38
  302.389
  302.387
  302.385
  302.383
  302.382
  302.38
  302.379
  302.378
  302.377
  302.376
  302.378
  302.382
  302.39
  302.431
  303.219
  302.519
  302.443
  302.457
  302.484
  302.509
  302.526
  302.519
  302.479
  302.416
  302.352
  302.301
  302.27
  302.259
  302.262
  302.271
  302.279
  302.295
  302.314
  302.34
  302.366
  302.39
  302.41
  302.425
  302.438
  302.448
  302.458
  302.466
  302.473
  302.478
  302.481
  302.484
  302.484
  302.448
  302.417
  302.402
  302.433
  303.412
  302.606
  302.49
  302.498
  302.536
  302.58
  302.616
  302.604
  302.544
  302.451
  302.364
  302.299
  302.263
  302.253
  302.261
  302.279
  302.298
  302.322
  302.349
  302.379
  302.41
  302.437
  302.46
  302.478
  302.494
  302.507
  302.518
  302.526
  302.531
  302.531
  302.529
  302.524
  302.514
  302.487
  302.45
  302.42
  302.431
  302.529
  302.572
  302.58
  303.585
  302.719
  302.575
  302.561
  302.6
  302.658
  302.694
  302.658
  302.569
  302.459
  302.357
  302.283
  302.246
  302.242
  302.261
  302.292
  302.326
  302.361
  302.397
  302.433
  302.466
  302.494
  302.516
  302.534
  302.549
  302.56
  302.568
  302.574
  302.576
  302.573
  302.565
  302.555
  302.539
  302.515
  302.479
  302.443
  302.436
  302.475
  302.494
  302.535
  303.747
  302.9
  302.76
  302.733
  302.749
  302.789
  302.763
  302.671
  302.542
  302.409
  302.301
  302.235
  302.213
  302.228
  302.269
  302.32
  302.372
  302.419
  302.462
  302.498
  302.53
  302.555
  302.574
  302.588
  302.599
  302.607
  302.612
  302.614
  302.612
  302.607
  302.595
  302.58
  302.562
  302.538
  302.507
  302.473
  302.456
  302.466
  302.479
  302.513
  303.98
  303.351
  303.2
  303.115
  303.052
  302.939
  302.772
  302.581
  302.4
  302.259
  302.175
  302.15
  302.172
  302.227
  302.3
  302.377
  302.443
  302.496
  302.537
  302.568
  302.592
  302.611
  302.624
  302.634
  302.64
  302.644
  302.645
  302.643
  302.639
  302.633
  302.622
  302.606
  302.589
  302.568
  302.545
  302.521
  302.513
  302.533
  302.559
  302.711
  304.317
  304.018
  303.72
  303.414
  303.082
  302.699
  302.364
  302.122
  301.985
  301.944
  301.978
  302.063
  302.168
  302.277
  302.386
  302.477
  302.536
  302.576
  302.606
  302.628
  302.644
  302.656
  302.664
  302.669
  302.671
  302.672
  302.67
  302.668
  302.664
  302.66
  302.658
  302.658
  302.66
  302.669
  302.687
  302.717
  302.758
  302.799
  302.825
  302.889
  293.418
  295.419
  297.297
  298.71
  299.746
  300.531
  301.133
  301.587
  301.925
  302.182
  302.344
  302.451
  302.529
  302.583
  302.619
  302.644
  302.662
  302.675
  302.684
  302.69
  302.694
  302.696
  302.697
  302.697
  302.697
  302.697
  302.697
  302.698
  302.7
  302.702
  302.708
  302.719
  302.736
  302.761
  302.791
  302.819
  302.839
  302.862
  294.599
  297.025
  299.17
  300.254
  300.945
  301.434
  301.789
  302.06
  302.264
  302.414
  302.515
  302.582
  302.628
  302.659
  302.68
  302.693
  302.703
  302.709
  302.713
  302.715
  302.717
  302.718
  302.718
  302.719
  302.719
  302.72
  302.721
  302.722
  302.724
  302.727
  302.731
  302.739
  302.751
  302.768
  302.789
  302.811
  302.81
  302.842
  298.224
  298.148
  298.142
  300.437
  301.366
  301.767
  302.013
  302.2
  302.346
  302.461
  302.55
  302.616
  302.662
  302.693
  302.714
  302.728
  302.738
  302.744
  302.747
  302.749
  302.75
  302.75
  302.749
  302.749
  302.748
  302.747
  302.746
  302.746
  302.745
  302.744
  302.744
  302.745
  302.746
  302.75
  302.755
  302.768
  302.779
  302.787
  302.791
  302.83
)
;

boundaryField
{
  floor
  {
    type wallHeatTransfer;
    Tinf uniform 305.2;
    alphaWall uniform 0.24;
    value nonuniform List<scalar> 29
(
  302.563
  302.91
  302.828
  302.787
  302.792
  302.806
  302.824
  302.847
  302.872
  302.897
  302.921
  302.944
  302.967
  302.988
  303.009
  303.03
  303.051
  303.074
  303.09
  303.142
  303.142
  303.014
  302.952
  302.919
  302.563
  302.91
  302.889
  302.65
  302.53
)
;
  }
  ceiling
  {
    type wallHeatTransfer;
    Tinf uniform 303.2;
    alphaWall uniform 0.24;
    value nonuniform List<scalar> 43
(
  298.548
  298.462
  298.446
  300.594
  301.474
  301.854
  302.087
  302.265
  302.405
  302.516
  302.602
  302.668
  302.715
  302.748
  302.771
  302.787
  302.798
  302.806
  302.811
  302.813
  302.815
  302.815
  302.814
  302.813
  302.812
  302.81
  302.808
  302.806
  302.803
  302.801
  302.799
  302.797
  302.796
  302.797
  302.799
  302.809
  302.818
  302.826
  302.831
  302.869
  304.266
  303.986
  295.106
)
;
  }
  sWall
  {
    type wallHeatTransfer;
    Tinf uniform 315.2;
    alphaWall uniform 0.36;
    value uniform 299.836;
  }
  nWall
  {
    type wallHeatTransfer;
    Tinf uniform 307.2;
    alphaWall uniform 0.36;
    value nonuniform List<scalar> 6
(
  303.392
  303.328
  303.23
  303.468
  303.446
  303.486
)
;
  }
  sideWalls
  {
    type empty;
  }
  glass1
  {
    type wallHeatTransfer;
    Tinf uniform 315.2;
    alphaWall uniform 4.3;
    value nonuniform List<scalar> 9
(
  311.117
  310.422
  309.99
  309.665
  309.397
  309.157
  308.987
  309.074
  309.327
)
;
  }
  glass2
  {
    type wallHeatTransfer;
    Tinf uniform 307.2;
    alphaWall uniform 4.3;
    value nonuniform List<scalar> 2
(
  305.412
  305.558
)
;
  }
  sun
  {
    type wallHeatTransfer;
    Tinf uniform 305.2;
    alphaWall uniform 0.24;
    value nonuniform List<scalar> 14
(
  302.9
  302.628
  302.611
  302.598
  302.587
  302.576
  302.565
  302.553
  302.542
  302.531
  302.523
  302.52
  302.525
  302.539
)
;
  }
  heatsource1
  {
    type fixedGradient;
    gradient uniform 0;
  }
  heatsource2
  {
    type fixedGradient;
    gradient uniform 0;
  }
  Table_master
  {
    type zeroGradient;
  }
  Table_slave
  {
    type zeroGradient;
  }
  inlet
  {
    type fixedValue;
    value uniform 290.15;
  }
  outlet
  {
    type zeroGradient;
  }
} 	// ************************************************************************* //

