/*--------------------------------*- C++ -*----------------------------------*=========                 |
  \      /  F ield         | OpenFOAM: The Open Source CFD Toolbox
   \    /   O peration     | Website:  https://openfoam.org
    \  /    A nd           | Version:  6
     \/     M anipulation  |
\*---------------------------------------------------------------------------*/
FoamFile
{
    version     2.0;
    format      ascii;
    class       volScalarField;
    location    "1500";
    object      PMV;
}
// * * * * * * * * * * * * * * * * * * * * * * * * * * * * * * * * * * * * * //

dimensions      [0 0 0 0 0 0 0];

internalField   nonuniform List<scalar> 
459
(
1.6792140438699403
1.465761089404078
1.4404007574639572
1.4176955926610437
1.4020919887147796
1.3926480380466144
1.3888506168069947
1.3916819391179296
1.3992610987530507
1.413747598388219
1.4355588340901475
1.4668108512006766
1.5086592002180967
1.556919224476518
1.5624094755511542
1.6197159310992046
1.6073017710187727
1.603004264810099
1.6044367836644398
1.6063467827116868
1.608256751827763
1.6046454013710671
1.6007883432182064
1.6002005108449235
1.6008518299963825
1.602008308238301
1.6035871230868408
1.6056952273785556
1.6082366780360295
1.6131529245655027
1.622205664681421
1.6287869964472868
1.6311740017483825
1.6421535874227242
1.6440850588019629
1.4865952419243738
1.4795625346606458
1.458917481357149
1.4465741903783222
1.4391445376536809
1.4362471950501738
1.4378297098880994
1.4415369590772902
1.4481387252116331
1.4602284136018255
1.4803252895316525
1.5094338858393739
1.5448990473236972
1.552379655931801
1.551424262203197
1.5485580412500395
1.5797005038726712
1.5996616558973282
1.5958414208170417
1.5946295046780534
1.5880327763994313
1.5838612985548215
1.5823136730799605
1.5825878951909043
1.5828181990143029
1.5831788215311553
1.583390184210113
1.583207482346829
1.5836401445827262
1.5842687633160732
1.5863325029023474
1.59307202705612
1.6101666908904613
1.6149414062579248
1.6049286970833083
1.688044089995198
1.489644655706174
1.5146215260985465
1.5049888951107515
1.5022677501947992
1.501400760027292
1.5028078712021506
1.5041495349295577
1.5014171867995092
1.4949368976582016
1.490418174363946
1.492823965724414
1.5060033302326534
1.5306264898074944
1.5504688618372524
1.551424262203197
1.552379655931801
1.4932781883157997
1.5364062170884953
1.5505384646264584
1.5593627535859211
1.5673605911262765
1.5734193004855477
1.5763414233249868
1.5828875153892408
1.5871340231368256
1.5887333748336112
1.5890853129283302
1.5889311460592965
1.5882214133438526
1.5861665873299309
1.5812128832901062
1.5820744568163345
1.5992395209992136
1.5907576735111764
1.544211120946125
1.7649571822247747
1.495996530480724
1.541798815149572
1.5510540702118156
1.5677900391166015
1.5829983439427366
1.5950184964000427
1.5952060852817351
1.5749938100017837
1.5421317755380628
1.5105058805656046
1.4908240494215392
1.4871521807489465
1.5014722693905451
1.5292603234215305
1.552379655931801
1.5458629257898395
1.5060010848657817
1.4989947982089629
1.5253175677176611
1.5503429906973691
1.5691700369266541
1.5848761416034196
1.5950235654807907
1.5971677551917547
1.5945686429995292
1.5928827044607696
1.5921374349526662
1.5925748339245467
1.5945532966841731
1.6000293014033224
1.610959057786263
1.6325595599479454
1.626615470270369
1.6123887964246604
1.5700976885648614
1.5002562324156132
1.8548997167860513
1.5165139007327049
1.5683644628024436
1.5951296088912195
1.63949468441113
1.6900047699321226
1.721364360275269
1.6918985990699105
1.6266368783946157
1.558522973782979
1.5052270747096617
1.4718168146354162
1.4610671172721081
1.47097602681706
1.4947323376723616
1.521883229411997
1.5330240808909907
1.531371984725609
1.538261947579497
1.5618188236854829
1.5899277755128902
1.6141678697701747
1.634252970176324
1.6450176526291906
1.6521774950385935
1.6544166869163743
1.652842976898628
1.6509044894944387
1.6484565636069348
1.6455677305503897
1.6442777000255289
1.645237516942042
1.6472162217251203
1.6345928297981178
1.6097094319814746
1.551270900120368
1.5456022607417756
1.6712681234055564
1.6557529860142932
1.4950049842983424
1.9442595945363979
1.5592164714707164
1.6207266294557656
1.646824235500315
1.7110542240288553
1.739011223947587
1.7536832433859655
1.6772549585323286
1.6032931557044015
1.5322441858838114
1.4753895438632776
1.4411711711952317
1.4326463099781979
1.447112344929571
1.4785299901083362
1.5161926501070324
1.5486793117524695
1.5724133244551721
1.5963878608503628
1.624012838955162
1.6392894495871804
1.6521774950385935
1.6622004942093809
1.6698364435321384
1.6760402500717073
1.680812160389676
1.6841523677534322
1.686061009333314
1.6870153168835984
1.685106692950896
1.6817665163056812
1.6769946495105748
1.6674794944565279
1.6430783473914639
1.6104905519069308
1.5498889167819434
1.5480740537752147
1.5627051212854974
1.5603272083724637
1.571337119430676
2.0326692493990097
1.6542870638255465
1.7708449306268927
1.7419882328550242
1.7372923536817557
1.7211712890582163
1.67746722935008
1.612471885543627
1.5380034824132025
1.4685917950110874
1.4186043664979175
1.3965771621591776
1.4043939455833163
1.4363963130625441
1.4856459062257559
1.5428290560933926
1.592021068679487
1.6149414062579248
1.6354704869087926
1.6531321058241837
1.6674502677135323
1.678903422359245
1.6874924673412857
1.6936952209936722
1.6979892133424745
1.7013288585799689
1.7032371772359225
1.7037142511904246
1.7027601009954332
1.6998975956693374
1.6946494572683184
1.6879696155845452
1.6798577957352063
1.6673728395255651
1.6287388422894153
1.5723620240267056
1.5509051798071025
1.5404659614053946
1.5144504923335913
1.5986322547900278
2.1645885031488823
1.9703568499666995
1.9263601886397441
1.8266618812307205
1.7730925597576663
1.7030355764982714
1.6095616723156037
1.5087415176279286
1.4197487617298128
1.3588518757937675
1.3340337950968284
1.34627670413188
1.389939830502277
1.4558396450218742
1.5359144660639301
1.59058840664528
1.6225805537458537
1.648836292508405
1.6693592126324859
1.6841523677534322
1.6956036845558915
1.7037142511904246
1.7094389595366222
1.71373227227099
1.7161173644043852
1.7175483915530072
1.7180253959005343
1.7170713848529588
1.7151633345727297
1.71182415652775
1.7070537046795067
1.6994205034881933
1.6917867215522997
1.6831980337579484
1.6731769998991106
1.6631550174903549
1.6419657340946732
1.6303318082710037
1.5699309722142856
1.4867457220026363
2.3608418613479953
2.22773258805965
2.0604426585419553
1.8835548833956648
1.708518948527091
1.5088928903814232
1.3391886283878953
1.2247285095017992
1.1746747185205408
1.1848007366458553
1.2415936825891554
1.3325453901832511
1.4428779844946458
1.5409144962309163
1.59058840664528
1.6359478642277525
1.6655412887820982
1.686061009333314
1.700374685579821
1.7108700846929283
1.7185023978933767
1.7207437118448847
1.7187507285856813
1.716639338401693
1.7134813616075717
1.709249629814263
1.7040629714763496
1.6977217310106485
1.6899784079934048
1.6803157872207697
1.6693072383537648
1.6576464820825645
1.6465760308306223
1.6328139631261152
1.6171346859347444
1.6038041426683762
1.59411372657709
1.5888355494743456
1.578226213349755
1.54767331327582
-2.9707667628951846
-1.737006895678747
-1.0916497599541974
-0.3841616978639904
0.15301326669079396
0.5749203209122506
0.917837256945549
1.1990156644638803
1.3611863281215628
1.4845309993912699
1.5671859923717215
1.6206708130340302
1.6563136756290133
1.670084831237309
1.6811070377843136
1.6886054943659272
1.6929065660150826
1.6946815092554541
1.6945242703854149
1.6926561805011267
1.690345108123798
1.68691328924849
1.682658985390267
1.6779480662934454
1.6727978442614235
1.6668744845846628
1.6614319955727925
1.6563539789058954
1.6530260800335088
1.6504199308361072
1.6487895522881235
1.6478011123909817
1.6474908634539602
1.6495723435428944
1.6601347230630104
1.6950837499625386
1.7652490978246898
1.6084106879713471
-2.450857955916185
-0.9900080113704307
0.03274667251440236
0.5519282688316682
0.8850360975562224
1.0915394943875278
1.2460222304364104
1.3654868452965891
1.4581100083460063
1.5276426509761536
1.5765096788027098
1.6096189985020202
1.6331024058521293
1.6494055810874342
1.66078511760424
1.6677855479486887
1.671898131797474
1.6743286089251475
1.6763087953759825
1.6765183657368214
1.676336965144719
1.6757642914830708
1.6743289142846545
1.6725616154553602
1.670559484362882
1.6689898118333515
1.667141155964635
1.6664833846202638
1.667133497296359
1.67049519329471
1.6779170004555606
1.689339027950941
1.7018904401705877
1.7121189353409203
1.7235672542719742
1.7615655193042894
1.69650800707235
1.6470239454237428
-0.8875151334863115
-1.0276235903070938
-0.90615675213357
0.337244646895365
0.8555830411457754
1.0764596166103264
1.2133039718108494
1.3189063272651338
1.4041478533701333
1.4737797499684506
1.5299151608622459
1.573680497753854
1.6055232883211936
1.6267694816164497
1.6402953769359436
1.647391776376098
1.6507965455267746
1.6515144235836294
1.6508608594079124
1.6508563960759153
1.6507201018173507
1.6505296252227957
1.6506840028380698
1.6511321455614874
1.6518454943498748
1.6528532350947653
1.6542718618931394
1.6563495796906536
1.6594902212666005
1.6642610278126317
1.671254358158928
1.6832388084777403
1.7050538001128124
1.7431954125232383
1.7723878912093316
1.7785850256614246
1.7455755805262494
1.7033296583217576
1.6610885383495961
1.6658786151852956
)
;

boundaryField
{
    ".*"
    {
        type            zeroGradient;
    }
}


// ************************************************************************* //
