/*--------------------------------*- C++ -*----------------------------------*\
  =========                 |
  \\      /  F ield         | OpenFOAM: The Open Source CFD Toolbox
   \\    /   O peration     | Website:  https://openfoam.org
    \\  /    A nd           | Version:  6
     \\/     M anipulation  |
\*---------------------------------------------------------------------------*/
FoamFile
{
    version     2.0;
    format      ascii;
    class       volScalarField;
    location    "800";
    object      epsilon;
}
// * * * * * * * * * * * * * * * * * * * * * * * * * * * * * * * * * * * * * //

dimensions      [0 2 -3 0 0 0 0];

internalField   nonuniform List<scalar> 
459
(
0.000499008
0.000651995
0.00068532
0.000790116
0.000897248
0.00100644
0.0011222
0.00124201
0.00133088
0.0013692
0.00134073
0.00123998
0.00107736
0.000882957
0.000699448
4.40855e-05
7.86843e-05
0.000108661
0.000104113
9.2397e-05
7.92242e-05
6.52023e-05
5.32125e-05
4.37142e-05
3.62901e-05
3.04586e-05
2.58306e-05
2.21439e-05
1.91429e-05
1.66294e-05
1.44291e-05
1.23846e-05
1.15054e-05
9.0789e-06
0.00128292
0.00183941
0.00061868
0.000598285
0.000629984
0.000679569
0.000749774
0.000839883
0.000923767
0.000976395
0.000977528
0.000919792
0.000809947
0.000673302
0.000580034
0.000738946
0.000148976
5.64143e-05
0.00013077
0.000133843
0.000119062
9.95608e-05
8.21484e-05
7.27007e-05
5.87825e-05
4.66758e-05
3.71021e-05
2.97122e-05
2.40272e-05
1.96716e-05
1.63234e-05
1.38619e-05
1.23494e-05
1.17671e-05
3.55784e-05
2.30864e-05
0.00234973
0.00451739
0.00079059
0.000581991
0.000612508
0.000691444
0.000804444
0.000942114
0.00106611
0.00114188
0.0011506
0.00109131
0.000975037
0.000825084
0.000693741
0.000621266
0.000725909
0.000438855
0.000300764
0.000219388
0.000165069
0.000127561
0.000105731
0.000189092
0.000130042
9.28759e-05
6.87526e-05
5.25583e-05
4.13337e-05
3.33452e-05
2.7559e-05
2.33852e-05
1.78176e-05
1.52784e-05
7.13225e-05
3.81023e-05
0.00380537
0.00932683
0.00128977
0.000612663
0.000619883
0.000735699
0.000915903
0.00112716
0.00128988
0.00137147
0.00136756
0.00128791
0.00114645
0.000963069
0.000795391
0.000674546
0.000646202
0.00123567
0.000684266
0.000400994
0.000263067
0.000186479
0.00014028
0.000119224
0.000269132
0.000202736
0.000163361
0.000137417
0.000117673
0.000100903
8.63724e-05
7.26553e-05
5.8597e-05
3.46012e-05
2.40248e-05
0.000130753
5.20133e-05
0.00579414
0.0164642
0.00258598
0.000785715
0.000685687
0.000843889
0.00116964
0.00147417
0.00164335
0.00169477
0.00165162
0.00152997
0.00134214
0.00111194
0.000878289
0.000675083
0.000527181
0.000461337
0.000366146
0.000280885
0.000214473
0.000165637
0.000130965
0.000109327
0.000106149
9.90151e-05
9.18604e-05
8.48095e-05
7.72763e-05
6.90137e-05
6.08589e-05
5.32452e-05
4.63509e-05
3.69917e-05
2.95786e-05
8.78889e-05
6.1495e-05
9.69863e-05
0.000163614
0.000230168
0.00853149
0.0242181
0.00577155
0.00163169
0.0011593
0.00134635
0.00189858
0.00214896
0.00220851
0.00216398
0.0020497
0.00186508
0.00160928
0.00130319
0.000989116
0.000713158
0.000508709
0.00038237
0.000301115
0.000238503
0.000187311
0.000148189
0.000120641
0.00010379
9.67396e-05
9.42416e-05
9.28619e-05
9.07939e-05
8.6811e-05
7.97994e-05
6.94606e-05
5.87949e-05
4.92503e-05
4.09628e-05
3.70907e-05
6.0088e-05
6.36833e-05
7.53189e-05
0.000306389
0.000266768
0.0115936
0.0287578
0.0116045
0.0051996
0.00375876
0.00368612
0.00357029
0.00334398
0.00309256
0.00285328
0.0026081
0.00231521
0.0019513
0.00153516
0.00111871
0.000761691
0.000506668
0.000351943
0.0002628
0.000203847
0.000160216
0.000129447
0.000110196
0.000100865
9.93901e-05
0.000102317
0.000106716
0.000111174
0.000114492
0.000114606
0.000107403
9.43706e-05
8.17614e-05
7.14707e-05
6.92761e-05
8.32662e-05
0.000108926
0.000177926
0.000439078
0.000405401
0.0121899
0.0303223
0.0173018
0.0123349
0.00961891
0.00752548
0.00597696
0.00492673
0.00423843
0.00376016
0.00334777
0.00289189
0.00235308
0.00176803
0.00121048
0.000755843
0.000459884
0.000294526
0.000210619
0.000163089
0.000132115
0.000113141
0.000103782
0.000102051
0.000106105
0.000114198
0.000125295
0.000139354
0.000156666
0.000177142
0.000199493
0.000214982
0.000226499
0.000253081
0.000308695
0.000475545
0.000881938
0.00174151
0.00577704
0.00136702
0.0111771
0.0183651
0.0147757
0.0112661
0.00880058
0.0072212
0.00625317
0.00566872
0.0052644
0.0048553
0.00430581
0.00356244
0.00269089
0.00183575
0.00110701
0.00057474
0.000333613
0.000220628
0.000163522
0.000131357
0.000112577
0.000102998
0.000100301
0.000102903
0.000109792
0.000120567
0.000135594
0.000156083
0.000184052
0.000222426
0.000275274
0.000347846
0.000448277
0.000597074
0.000816262
0.00111297
0.00145316
0.00175485
0.00198331
0.00109277
0.00394561
0.00685763
0.00847932
0.00887274
0.00880107
0.00832433
0.00740112
0.00612037
0.00465116
0.00314554
0.00189757
0.00111468
0.000638665
0.000372938
0.000246442
0.000184433
0.00015126
0.000131578
0.000119758
0.00011354
0.000111597
0.000113094
0.000117698
0.000125513
0.000137098
0.000153563
0.000176766
0.000209682
0.000257029
0.000325368
0.000422631
0.000559507
0.000744632
0.000971847
0.00121405
0.00144622
0.00127806
0.000628878
0.00377395
0.00829492
0.00840557
0.00699512
0.00614377
0.00523174
0.00418529
0.00313869
0.00219991
0.00143177
0.000884784
0.000554903
0.000371243
0.000276192
0.000229835
0.000205794
0.000190892
0.000179416
0.000169257
0.000160627
0.000154073
0.000149875
0.000148488
0.000150625
0.000157238
0.000169547
0.000189199
0.000218552
0.000261235
0.000321891
0.000406837
0.000522765
0.00067238
0.00084937
0.00103767
0.00129884
0.0006905
0.00069494
0.00268889
0.00320512
0.00361695
0.0045209
0.00404259
0.00358797
0.00326833
0.0028498
0.00234056
0.00181114
0.00131851
0.000910291
0.000613737
0.000422705
0.000306682
0.000236345
0.000192521
0.000164323
0.000145895
0.000134259
0.000127924
0.000125362
0.000125646
0.000128584
0.000134229
0.00014283
0.000154832
0.000170958
0.000192413
0.000221315
0.000258406
0.000306072
0.000366957
0.000444426
0.000541701
0.000670961
0.000706615
0.000538034
0.000431268
0.00061569
)
;

boundaryField
{
    floor
    {
        Cmu             0.09;
        kappa           0.41;
        E               9.8;
        type            epsilonWallFunction;
        value           nonuniform List<scalar> 
29
(
0.000699448
4.40855e-05
7.86843e-05
0.000108661
0.000104113
9.2397e-05
7.92242e-05
6.52023e-05
5.32125e-05
4.37142e-05
3.62901e-05
3.04586e-05
2.58306e-05
2.21439e-05
1.91429e-05
1.66294e-05
1.44291e-05
1.23846e-05
1.15054e-05
9.0789e-06
9.0789e-06
2.30864e-05
3.81023e-05
5.20133e-05
0.000699448
4.40855e-05
5.64143e-05
0.000438855
0.00123567
)
;
    }
    ceiling
    {
        Cmu             0.09;
        kappa           0.41;
        E               9.8;
        type            epsilonWallFunction;
        value           nonuniform List<scalar> 
43
(
0.00268889
0.00320512
0.00361695
0.0045209
0.00404259
0.00358797
0.00326833
0.0028498
0.00234056
0.00181114
0.00131851
0.000910291
0.000613737
0.000422705
0.000306682
0.000236345
0.000192521
0.000164323
0.000145895
0.000134259
0.000127924
0.000125362
0.000125646
0.000128584
0.000134229
0.00014283
0.000154832
0.000170958
0.000192413
0.000221315
0.000258406
0.000306072
0.000366957
0.000444426
0.000541701
0.000670961
0.000706615
0.000538034
0.000431268
0.00061569
0.0111771
0.0183651
0.00377395
)
;
    }
    sWall
    {
        Cmu             0.09;
        kappa           0.41;
        E               9.8;
        type            epsilonWallFunction;
        value           uniform 0.00268889;
    }
    nWall
    {
        Cmu             0.09;
        kappa           0.41;
        E               9.8;
        type            epsilonWallFunction;
        value           nonuniform List<scalar> 6(0.000230168 0.000266768 0.000405401 0.000628878 0.00069494 0.00061569);
    }
    sideWalls
    {
        type            empty;
    }
    glass1
    {
        Cmu             0.09;
        kappa           0.41;
        E               9.8;
        type            epsilonWallFunction;
        value           nonuniform List<scalar> 9(0.000499008 0.00128292 0.00234973 0.00380537 0.00579414 0.00853149 0.0115936 0.0121899 0.0111771);
    }
    glass2
    {
        Cmu             0.09;
        kappa           0.41;
        E               9.8;
        type            epsilonWallFunction;
        value           nonuniform List<scalar> 2(0.00136702 0.00109277);
    }
    sun
    {
        Cmu             0.09;
        kappa           0.41;
        E               9.8;
        type            epsilonWallFunction;
        value           nonuniform List<scalar> 
14
(
0.000499008
0.000651995
0.00068532
0.000790116
0.000897248
0.00100644
0.0011222
0.00124201
0.00133088
0.0013692
0.00134073
0.00123998
0.00107736
0.000882957
)
;
    }
    heatsource1
    {
        Cmu             0.09;
        kappa           0.41;
        E               9.8;
        type            epsilonWallFunction;
        value           nonuniform List<scalar> 3(9.69863e-05 0.000163614 0.000230168);
    }
    heatsource2
    {
        Cmu             0.09;
        kappa           0.41;
        E               9.8;
        type            epsilonWallFunction;
        value           nonuniform List<scalar> 4(0.000738946 0.000148976 0.000148976 0.000725909);
    }
    Table_master
    {
        Cmu             0.09;
        kappa           0.41;
        E               9.8;
        type            epsilonWallFunction;
        value           nonuniform List<scalar> 9(0.000189092 0.000130042 9.28759e-05 6.87526e-05 5.25583e-05 4.13337e-05 3.33452e-05 2.7559e-05 2.33852e-05);
    }
    Table_slave
    {
        Cmu             0.09;
        kappa           0.41;
        E               9.8;
        type            epsilonWallFunction;
        value           nonuniform List<scalar> 9(0.000269132 0.000202736 0.000163361 0.000137417 0.000117673 0.000100903 8.63724e-05 7.26553e-05 5.8597e-05);
    }
    inlet
    {
        type            turbulentMixingLengthDissipationRateInlet;
        mixingLength    0.01;
        phi             phi;
        k               k;
        value           uniform 0.000101881;
    }
    outlet
    {
        type            zeroGradient;
    }
}


// ************************************************************************* //
