/*--------------------------------*- C++ -*----------------------------------*\
  =========                 |
  \\      /  F ield         | OpenFOAM: The Open Source CFD Toolbox
   \\    /   O peration     | Website:  https://openfoam.org
    \\  /    A nd           | Version:  6
     \\/     M anipulation  |
\*---------------------------------------------------------------------------*/
FoamFile
{
    version     2.0;
    format      ascii;
    class       volScalarField;
    location    "100";
    object      nut;
}
// * * * * * * * * * * * * * * * * * * * * * * * * * * * * * * * * * * * * * //

dimensions      [0 2 -1 0 0 0 0];

internalField   nonuniform List<scalar> 
459
(
0.000890543
0.000947314
0.000945682
0.000983329
0.00101722
0.00104767
0.00107592
0.00110339
0.00113116
0.00115284
0.00116525
0.00116429
0.00114634
0.00111138
0.00106608
0.000471374
0.000558885
0.000586925
0.000572731
0.000556146
0.000538183
0.000515578
0.000492464
0.000471096
0.000451908
0.000434787
0.000419496
0.000405789
0.000393399
0.00038183
0.000370418
0.000358262
0.000352855
0.00033001
0.00129158
0.0024877
0.00220654
0.00256123
0.0028309
0.00311749
0.00340196
0.00365215
0.00383015
0.00399815
0.00413314
0.0041948
0.00412047
0.00378118
0.00283612
0.00107512
0.000696323
0.00061696
0.000955257
0.00120554
0.00143091
0.00158265
0.00162256
0.00136598
0.00122389
0.00111762
0.00103179
0.000961066
0.000902638
0.000852452
0.000804014
0.000752394
0.000703794
0.000659397
0.000799659
0.000428058
0.0016421
0.00349025
0.00248223
0.00342024
0.00370348
0.00389108
0.00402699
0.00413066
0.00421378
0.00431825
0.00442662
0.00451667
0.00457769
0.00461642
0.00456919
0.00396077
0.0010247
0.000922965
0.00129574
0.0016071
0.00193311
0.00220451
0.00218095
0.000696177
0.000628901
0.000574108
0.000529276
0.000492177
0.000461126
0.000435026
0.000413387
0.00039652
0.000442195
0.000528669
0.000929283
0.000501106
0.00199394
0.00487426
0.00237688
0.00362417
0.00394309
0.00398492
0.00396322
0.0039478
0.0039755
0.00404816
0.00413652
0.00420794
0.00426409
0.00439422
0.00469842
0.00487996
0.00403379
0.00113587
0.00153947
0.00200254
0.0024679
0.00288305
0.00317395
0.00295483
0.000777298
0.000732262
0.000707
0.000690095
0.00067347
0.00065136
0.000626648
0.000598698
0.000563591
0.000540354
0.000567505
0.00112777
0.000557472
0.0023538
0.00671878
0.00273466
0.0033627
0.00393634
0.00392247
0.00380858
0.0037339
0.00375927
0.00385613
0.0039653
0.00402217
0.00400251
0.00403992
0.00437098
0.00470462
0.0045722
0.00391144
0.00367487
0.00370647
0.00385112
0.00402528
0.00415587
0.00411623
0.00360867
0.00346739
0.00341296
0.00335446
0.00325618
0.00309735
0.00279824
0.00239247
0.0019239
0.00144729
0.00106538
0.00110254
0.000738176
0.000683731
0.000813301
0.000910506
0.00272815
0.00871778
0.00431826
0.00303392
0.00361224
0.00378186
0.00372234
0.00363404
0.00364283
0.00379818
0.00394951
0.00401325
0.0039197
0.00383065
0.00413095
0.00446981
0.00451571
0.00438776
0.00435895
0.00439008
0.00443552
0.00449178
0.00453616
0.00453743
0.00446955
0.00442067
0.00435673
0.004258
0.00412126
0.00395036
0.00371997
0.0033605
0.00287591
0.00229409
0.00173648
0.00125884
0.000991136
0.000878916
0.00127104
0.000958393
0.00309653
0.0102981
0.0072334
0.00422598
0.00333231
0.00323422
0.00342714
0.00361496
0.00369881
0.00387384
0.00402604
0.00408144
0.00392298
0.00371593
0.00400635
0.0044238
0.00452358
0.00448001
0.00446793
0.00445346
0.00444005
0.00444245
0.00444985
0.00444709
0.00442644
0.0043834
0.00430012
0.0041818
0.00404206
0.0039006
0.00377143
0.0035838
0.00322736
0.00272783
0.00221961
0.00172569
0.00140721
0.00136134
0.00144307
0.001124
0.00318426
0.00988377
0.00833392
0.00689607
0.00545173
0.00446217
0.00408302
0.00408545
0.00405945
0.00409426
0.00417867
0.00419028
0.00392376
0.0035791
0.00394683
0.00452417
0.00464463
0.00450365
0.00433507
0.00422901
0.00417752
0.00415645
0.00414047
0.00411207
0.00406096
0.00397993
0.0038687
0.00374256
0.00362687
0.00354767
0.00352418
0.00354316
0.00342423
0.00307519
0.00276067
0.00263463
0.00286055
0.00357642
0.00453295
0.00169402
0.0031173
0.00375406
0.00430939
0.00455256
0.00457469
0.00439984
0.00422391
0.00413443
0.00412613
0.0042083
0.00431812
0.0042837
0.00381887
0.00330241
0.00391474
0.00474187
0.00477359
0.00439969
0.0041156
0.00396997
0.00389996
0.0038566
0.00381044
0.0037435
0.00364517
0.00351176
0.00334916
0.00317307
0.00300284
0.00285309
0.00272866
0.00262556
0.00254864
0.00249924
0.00249938
0.00253829
0.00253732
0.00242315
0.00223928
0.00154684
0.00234052
0.00422741
0.00458333
0.00465151
0.00464964
0.00465794
0.00465782
0.00463845
0.00456491
0.00424917
0.00339313
0.00274081
0.00393954
0.0050447
0.00479543
0.00430295
0.00401577
0.00388498
0.00381713
0.0037647
0.00370291
0.00361719
0.00349973
0.00334907
0.00317178
0.00298324
0.00280509
0.00266073
0.00257025
0.00253613
0.00253818
0.00255983
0.00258356
0.00257181
0.00247039
0.00225549
0.00194469
0.00125261
0.00248397
0.00495013
0.00525764
0.00514424
0.0049815
0.00481811
0.00460608
0.00436181
0.00397722
0.00338169
0.00240197
0.00185056
0.00362945
0.00423385
0.00412473
0.00383007
0.00365868
0.00357094
0.00351479
0.00346443
0.00340517
0.00332963
0.00323699
0.00313197
0.00302331
0.00292096
0.00283218
0.00275745
0.00271378
0.0027149
0.00275367
0.00281481
0.00287489
0.00291886
0.0029028
0.00287476
0.00245298
0.00127026
0.00213941
0.00226091
0.00236236
0.00249934
0.00234539
0.00221106
0.00199536
0.00181546
0.00164207
0.00147984
0.00135471
0.00123905
0.00107982
0.00091092
0.000963039
0.000991497
0.000955844
0.000938199
0.000927688
0.000921467
0.000917041
0.000913357
0.00091025
0.000908247
0.000908391
0.000911985
0.000920377
0.000934874
0.000956892
0.000988398
0.00102901
0.00107817
0.00113601
0.00120234
0.00127629
0.00137433
0.00140395
0.00137034
0.00127762
0.00117833
)
;

boundaryField
{
    floor
    {
        type            nutkWallFunction;
        Cmu             0.09;
        kappa           0.41;
        E               9.8;
        value           nonuniform List<scalar> 
29
(
0.000128458
5.60595e-05
6.72031e-05
7.07273e-05
6.89468e-05
6.68591e-05
6.45891e-05
6.17195e-05
5.87692e-05
5.60265e-05
5.35505e-05
5.13299e-05
4.93376e-05
4.75436e-05
4.59154e-05
4.43891e-05
4.28775e-05
4.12608e-05
4.05384e-05
3.7473e-05
3.7473e-05
5.04496e-05
5.98681e-05
6.70187e-05
0.000128458
5.60594e-05
7.44762e-05
0.00011162
0.000136585
)
;
    }
    ceiling
    {
        type            nutkWallFunction;
        Cmu             0.09;
        kappa           0.41;
        E               9.8;
        value           nonuniform List<scalar> 
43
(
0.000248316
0.000261398
0.000272266
0.000286985
0.000270605
0.000256198
0.000232846
0.000213153
0.000193972
0.000175823
0.000161675
0.000148468
0.000130057
0.000110178
0.000116353
0.000119709
0.000115506
0.000113419
0.000112174
0.000111436
0.00011091
0.000110473
0.000110104
0.000109866
0.000109883
0.00011031
0.000111307
0.000113027
0.000115633
0.000119351
0.000124123
0.000129871
0.000136595
0.00014426
0.000152749
0.000163919
0.000167277
0.000163467
0.000152901
0.000141492
0.000352272
0.000417861
0.000285107
)
;
    }
    sWall
    {
        type            nutkWallFunction;
        Cmu             0.09;
        kappa           0.41;
        E               9.8;
        value           uniform 0.000248385;
    }
    nWall
    {
        type            nutkWallFunction;
        Cmu             0.09;
        kappa           0.41;
        E               9.8;
        value           nonuniform List<scalar> 6(0.000110134 0.000115812 0.000135207 0.00015005 0.000152073 0.000141503);
    }
    sideWalls
    {
        type            empty;
    }
    glass1
    {
        type            nutkWallFunction;
        Cmu             0.09;
        kappa           0.41;
        E               9.8;
        value           nonuniform List<scalar> 9(0.000107798 0.000154683 0.00019429 0.00023311 0.000272054 0.0003119 0.000350553 0.000359697 0.000352746);
    }
    glass2
    {
        type            nutkWallFunction;
        Cmu             0.09;
        kappa           0.41;
        E               9.8;
        value           nonuniform List<scalar> 2(0.00019988 0.000183466);
    }
    sun
    {
        type            nutkWallFunction;
        Cmu             0.09;
        kappa           0.41;
        E               9.8;
        value           nonuniform List<scalar> 
14
(
0.000107756
0.000114498
0.000114304
0.00011875
0.000122736
0.000126305
0.000129605
0.000132805
0.000136029
0.000138541
0.000139977
0.000139865
0.000137789
0.000133735
)
;
    }
    heatsource1
    {
        type            nutkWallFunction;
        Cmu             0.09;
        kappa           0.41;
        E               9.8;
        value           nonuniform List<scalar> 3(8.27329e-05 9.84978e-05 0.000110129);
    }
    heatsource2
    {
        type            nutkWallFunction;
        Cmu             0.09;
        kappa           0.41;
        E               9.8;
        value           nonuniform List<scalar> 4(0.00012951 8.42887e-05 8.42886e-05 0.000123615);
    }
    Table_master
    {
        type            nutkWallFunction;
        Cmu             0.09;
        kappa           0.41;
        E               9.8;
        value           nonuniform List<scalar> 9(8.42713e-05 7.59665e-05 6.91235e-05 6.34653e-05 5.87386e-05 5.47487e-05 5.13692e-05 4.85482e-05 4.63367e-05);
    }
    Table_slave
    {
        type            nutkWallFunction;
        Cmu             0.09;
        kappa           0.41;
        E               9.8;
        value           nonuniform List<scalar> 9(9.41591e-05 8.86846e-05 8.55959e-05 8.35214e-05 8.14756e-05 7.87459e-05 7.56823e-05 7.21995e-05 6.77968e-05);
    }
    inlet
    {
        type            calculated;
        value           uniform 0.000100623;
    }
    outlet
    {
        type            calculated;
        value           nonuniform List<scalar> 2(0.00213941 0.00226091);
    }
}


// ************************************************************************* //
