/*--------------------------------*- C++ -*----------------------------------*\
  =========                 |
  \\      /  F ield         | OpenFOAM: The Open Source CFD Toolbox
   \\    /   O peration     | Website:  https://openfoam.org
    \\  /    A nd           | Version:  6
     \\/     M anipulation  |
\*---------------------------------------------------------------------------*/
FoamFile
{
    version     2.0;
    format      ascii;
    class       volScalarField;
    location    "2200";
    object      alphat;
}
// * * * * * * * * * * * * * * * * * * * * * * * * * * * * * * * * * * * * * //

dimensions      [1 -1 -1 0 0 0 0];

internalField   nonuniform List<scalar> 
459
(
0.00126335
0.00137829
0.00139797
0.0014646
0.00152651
0.00158415
0.00163994
0.00169729
0.00174172
0.00176648
0.00176528
0.00173325
0.00166965
0.00158183
0.00148508
0.000567917
0.000695047
0.000763591
0.000743266
0.000709725
0.000671913
0.000630277
0.000590596
0.00055477
0.00052286
0.00049447
0.000469246
0.000446737
0.000426347
0.000407425
0.000389082
0.000370076
0.00036155
0.000334743
0.0017423
0.00423101
0.00403528
0.00470603
0.00534774
0.00599496
0.00658765
0.00703129
0.00742971
0.00776342
0.00798359
0.00802509
0.00778635
0.00703629
0.00506715
0.00150995
0.000952325
0.000632789
0.00122156
0.00162978
0.00190653
0.00203484
0.00201627
0.00168246
0.0014762
0.00132387
0.00120436
0.00110748
0.00102517
0.000951527
0.000883165
0.000817922
0.000761038
0.000706531
0.000859117
0.000460595
0.00214166
0.00580674
0.00498684
0.00639884
0.00709253
0.00760253
0.00799527
0.00829179
0.00859544
0.00891435
0.0092151
0.00943884
0.00950955
0.00933294
0.00868543
0.00685101
0.00146479
0.00128471
0.00175702
0.00214683
0.00246938
0.00266956
0.00257248
0.000893234
0.000791821
0.00071079
0.000645557
0.000592451
0.000548723
0.000512406
0.000482213
0.000457587
0.000492514
0.000563525
0.00097277
0.000545033
0.00252554
0.00750659
0.00501081
0.00682816
0.0075467
0.00780485
0.00793424
0.00804765
0.00825615
0.00855883
0.00892478
0.00928672
0.00956239
0.00968532
0.00955502
0.00889827
0.00679876
0.00174004
0.00220227
0.00279912
0.00328675
0.00361743
0.00378877
0.00351074
0.000998179
0.000911669
0.000851913
0.00080767
0.000770139
0.00073389
0.000699055
0.000662178
0.000618775
0.000583738
0.000598037
0.00116071
0.000605481
0.00291544
0.00967595
0.00561129
0.00653973
0.0075297
0.00770224
0.00764185
0.00761235
0.00778704
0.0080875
0.00850071
0.00894225
0.00929989
0.00948495
0.00944021
0.00910775
0.00830593
0.00671032
0.00609092
0.00578576
0.00558457
0.00543635
0.00531116
0.00508891
0.00432278
0.0039805
0.00378902
0.00363706
0.00346856
0.00322688
0.00286995
0.00243006
0.0019421
0.00144954
0.00106718
0.00111408
0.000793055
0.000752677
0.000895886
0.00100173
0.00332554
0.0120043
0.00785687
0.00653066
0.00717061
0.00756048
0.00746158
0.00746022
0.0076105
0.00788921
0.00830165
0.00877864
0.00918617
0.00938932
0.00931362
0.0089742
0.008455
0.00784975
0.00740528
0.00703971
0.00670292
0.00641042
0.00615632
0.00589549
0.00555079
0.00525901
0.00500516
0.00476288
0.00451798
0.00425961
0.00392309
0.00347846
0.00292809
0.00230366
0.00173723
0.001262
0.00103728
0.000934525
0.00136145
0.00104978
0.00369372
0.0136106
0.0110285
0.00853354
0.00800009
0.00801608
0.00784386
0.00768941
0.00769799
0.00793397
0.0083755
0.00890711
0.00935233
0.00954326
0.00939726
0.00896478
0.00843043
0.00799424
0.00769039
0.00737525
0.00699592
0.00658449
0.00616637
0.00577289
0.00541661
0.00511483
0.00485114
0.00460906
0.00438651
0.00418855
0.00401463
0.00374442
0.00332287
0.00278455
0.00227175
0.0017808
0.00149184
0.0014289
0.0014752
0.00119067
0.00375771
0.0120489
0.0107799
0.0100733
0.00952433
0.0088135
0.00812851
0.00775256
0.00777066
0.00814333
0.00874057
0.00936861
0.00981168
0.0099008
0.00958907
0.00898697
0.00836314
0.0079421
0.00760147
0.00710227
0.00650124
0.00589721
0.00536637
0.00494653
0.0046275
0.00437806
0.00417154
0.00400005
0.00386783
0.00378352
0.00375479
0.00375108
0.0035589
0.00319965
0.00289981
0.00278774
0.00298169
0.00354002
0.00459817
0.00180924
0.00364803
0.00431947
0.00482703
0.00499459
0.00513261
0.00540293
0.0059155
0.00670518
0.00769722
0.00874261
0.00966964
0.0103103
0.0105233
0.0102484
0.00958354
0.00878546
0.00811602
0.00750098
0.0068129
0.0060377
0.00530416
0.004712
0.00427705
0.00396428
0.00372876
0.00353724
0.00337214
0.00322672
0.00309778
0.0029821
0.00287655
0.00277902
0.00270479
0.00266041
0.00266795
0.00271465
0.00272389
0.0026257
0.00244118
0.00168177
0.00191849
0.00433328
0.00664046
0.00844007
0.00983804
0.0108617
0.0114879
0.0117451
0.0116861
0.0113399
0.0107411
0.00991495
0.00894312
0.00803451
0.00718329
0.00629828
0.00543595
0.00469623
0.00414599
0.00376664
0.00349977
0.00329796
0.00313389
0.00299479
0.00287619
0.0027779
0.00270195
0.00265234
0.00263501
0.00265279
0.00269244
0.00275206
0.00282687
0.00289566
0.00293036
0.00293486
0.00260962
0.00140179
0.00264897
0.0072079
0.0101545
0.0108201
0.0111749
0.0112552
0.0109671
0.0103936
0.00964356
0.00882136
0.00802521
0.00729187
0.00658066
0.00586142
0.0051337
0.00448337
0.00396869
0.00357846
0.00328729
0.00307176
0.00290421
0.00276937
0.00266261
0.00258466
0.00253722
0.00251995
0.00252889
0.00255541
0.00261188
0.0026951
0.00280047
0.00292062
0.00304134
0.00314815
0.0032442
0.0032782
0.00225681
0.00144974
0.0023223
0.00246291
0.00256498
0.00273458
0.00262812
0.0024986
0.00240026
0.00228267
0.00213647
0.00197076
0.00179096
0.0016039
0.00141895
0.00125126
0.00111498
0.00101229
0.000938396
0.000887282
0.000853669
0.000834001
0.000824
0.000820408
0.000822377
0.000829618
0.000842131
0.000860023
0.000883477
0.000912851
0.000948897
0.00099315
0.00104473
0.00110409
0.00117145
0.0012471
0.00133067
0.00142666
0.00145563
0.00132994
0.00123824
0.00139591
)
;

boundaryField
{
    floor
    {
        type            compressible::alphatWallFunction;
        Prt             0.85;
        value           nonuniform List<scalar> 
29
(
0.000208938
7.95226e-05
9.84376e-05
0.000108457
0.000105498
0.000100593
9.50288e-05
8.88583e-05
8.29309e-05
7.75371e-05
7.26964e-05
6.83588e-05
6.44786e-05
6.09936e-05
5.78175e-05
5.48528e-05
5.19618e-05
4.89477e-05
4.75894e-05
4.32909e-05
4.32903e-05
6.31419e-05
7.6064e-05
8.51604e-05
0.000208936
7.95216e-05
8.92327e-05
0.00018175
0.000242951
)
;
    }
    ceiling
    {
        type            compressible::alphatWallFunction;
        Prt             0.85;
        value           nonuniform List<scalar> 
43
(
0.000318568
0.000336531
0.000349507
0.000371093
0.000357711
0.000341306
0.000328786
0.000313735
0.000294901
0.000273381
0.000249804
0.000224995
0.000200148
0.000177303
0.000158479
0.000144119
0.000133682
0.000126406
0.000121595
0.000118769
0.000117329
0.000116811
0.000117095
0.000118138
0.000119937
0.000122506
0.000125862
0.000130052
0.000135171
0.000141425
0.000148674
0.000156966
0.000166312
0.000176737
0.000188169
0.000201201
0.000205114
0.000188071
0.000175524
0.000197047
0.000484676
0.000566057
0.000359933
)
;
    }
    sWall
    {
        type            compressible::alphatWallFunction;
        Prt             0.85;
        value           uniform 0.000317293;
    }
    nWall
    {
        type            compressible::alphatWallFunction;
        Prt             0.85;
        value           nonuniform List<scalar> 6(0.000142283 0.000149024 0.0001686 0.000197486 0.000203967 0.000196694);
    }
    sideWalls
    {
        type            empty;
    }
    glass1
    {
        type            compressible::alphatWallFunction;
        Prt             0.85;
        value           nonuniform List<scalar> 9(0.000174251 0.000237769 0.000289403 0.000338162 0.00038696 0.000437608 0.000482581 0.000490496 0.000477422);
    }
    glass2
    {
        type            compressible::alphatWallFunction;
        Prt             0.85;
        value           nonuniform List<scalar> 2(0.000250129 0.000233442);
    }
    sun
    {
        type            compressible::alphatWallFunction;
        Prt             0.85;
        value           nonuniform List<scalar> 
14
(
0.000178848
0.000194509
0.000197177
0.000206183
0.000214511
0.00022223
0.000229672
0.000237292
0.000243177
0.000246448
0.000246289
0.000242054
0.000233621
0.000221917
)
;
    }
    heatsource1
    {
        type            compressible::alphatWallFunction;
        Prt             0.85;
        value           nonuniform List<scalar> 3(0.000107024 0.000127663 0.000142664);
    }
    heatsource2
    {
        type            compressible::alphatWallFunction;
        Prt             0.85;
        value           nonuniform List<scalar> 4(0.000212458 0.000135686 0.000135684 0.000206377);
    }
    Table_master
    {
        type            compressible::alphatWallFunction;
        Prt             0.85;
        value           nonuniform List<scalar> 9(0.000127281 0.000112705 0.000100898 9.12752e-05 8.33532e-05 7.67644e-05 7.12423e-05 6.66142e-05 6.28121e-05);
    }
    Table_slave
    {
        type            compressible::alphatWallFunction;
        Prt             0.85;
        value           nonuniform List<scalar> 9(0.000142163 0.000129912 0.00012137 0.000115 0.000109564 0.000104283 9.91783e-05 9.37407e-05 8.72932e-05);
    }
    inlet
    {
        type            fixedValue;
        value           uniform 1.94e-05;
    }
    outlet
    {
        type            zeroGradient;
    }
}


// ************************************************************************* //
