/*--------------------------------*- C++ -*----------------------------------*=========                 |
  \      /  F ield         | OpenFOAM: The Open Source CFD Toolbox
   \    /   O peration     | Website:  https://openfoam.org
    \  /    A nd           | Version:  6
     \/     M anipulation  |
\*---------------------------------------------------------------------------*/
FoamFile
{
    version     2.0;
    format      ascii;
    class       volScalarField;
    location    "2200";
    object      PMV;
}
// * * * * * * * * * * * * * * * * * * * * * * * * * * * * * * * * * * * * * //

dimensions      [0 0 0 0 0 0 0];

internalField   nonuniform List<scalar> 
459
(
1.6855436767749403
1.4736046883366547
1.4501236042348844
1.4278653030946824
1.4116430901867771
1.4009756478863225
1.3957214028656355
1.3964574294258312
1.4018339201184005
1.4125570157592593
1.4302800372745665
1.456875727550978
1.4933514364516955
1.5364281120163215
1.5544873635118628
1.6123104752183266
1.6003743518157014
1.5960770629050518
1.5965545468048028
1.5975095091000244
1.5984644640436465
1.5972665925385394
1.593947626311462
1.593161005368784
1.5937535260365634
1.5943084648400776
1.5952491189697269
1.5962168256290712
1.5985032470964546
1.6026509712106694
1.6080136058111776
1.6089684788864747
1.6104007743681956
1.6194715820798282
1.6526723839360264
1.493693680363727
1.4883597515446818
1.4678693748986742
1.455370519287857
1.4472076010510766
1.4432938318152866
1.4437820188465809
1.446505202945568
1.4517635637021788
1.4602654231355834
1.4756219495555165
1.4981937423192258
1.5259629094721
1.551577795017877
1.5550082054551675
1.5516647178892462
1.5609156215534736
1.5946446002199057
1.5908246194932532
1.5895399743611656
1.5821103577530458
1.5777922249512328
1.57563263449081
1.5753488456491402
1.5752151245753163
1.574260884273055
1.5736402971097734
1.5726231452214876
1.572187071807866
1.5719176170489564
1.573062147181469
1.578886476263757
1.5898696061580186
1.5927346244093838
1.5768596189347017
1.6991234316466433
1.4958446751785603
1.5226831499319087
1.5119982157319685
1.5089824382182584
1.5078385015039
1.5080310400859023
1.5105542828730854
1.509799117479024
1.505356382528879
1.4991934767596407
1.4971077774908998
1.5036578066235364
1.520126337971426
1.5491619735246673
1.5564411036103254
1.5564411036103254
1.4869208728507868
1.5369280529746674
1.553792470489259
1.561255341158144
1.5672688118574218
1.5713694403698804
1.5734663099313444
1.5776675017865553
1.5796800934637119
1.5795903109516003
1.5785501990156168
1.5770928879686579
1.575133253677318
1.5723714257442873
1.565918285090223
1.5660048012785612
1.5827514954188262
1.5696855803772267
1.5160008833877183
1.7778683251275533
1.5005061126254162
1.5483439744517606
1.554838772297526
1.5693946292832766
1.5831058379131437
1.5941153936193526
1.6009500934216996
1.5919626452827698
1.5664958531373072
1.5340376006086203
1.5077912678118062
1.4952236901123057
1.50010021941585
1.5230213568262756
1.5568501838644517
1.560739707151956
1.5265945180881224
1.5106605935448678
1.5368466899866835
1.560456611477786
1.5755711194077828
1.587225830459439
1.5930721959481076
1.5920533099315965
1.5881679564156646
1.584423659110099
1.582028527114405
1.5801274945349069
1.5801279827250876
1.5838294493650509
1.593217671571262
1.613562499108813
1.6077742671366426
1.5945648645470611
1.5477844516813921
1.4696551857367384
1.8689545218640446
1.5207410288052183
1.5739688912700185
1.595341920675657
1.6335682205387787
1.676038010498331
1.716282233887415
1.7164902949045193
1.6671904404680111
1.6047721017737226
1.5441665775017765
1.499366565915314
1.4761023689538646
1.4755569616353128
1.4932386069406471
1.5205569987164718
1.5402787809950398
1.5426667958197697
1.5470129619462916
1.5692803595365445
1.5963958698604688
1.6166071909704225
1.62376803860791
1.6290190493188783
1.633792489147561
1.6376110981911143
1.639826485889095
1.6358470716273499
1.6313408252078454
1.6269055250521058
1.6241593023651584
1.6239923128480065
1.6251876747568639
1.613053614050013
1.5894577153422962
1.528095615170001
1.5216324962129577
1.6438160643173567
1.624840994284191
1.461624737009637
1.958771805249695
1.5634232783349424
1.6247451886860431
1.643495812490015
1.6928057582162164
1.7301706568582957
1.7568726829925765
1.732379739143021
1.6595301762820422
1.5874162332310784
1.522226668672835
1.4745097889955388
1.4505493894805372
1.452407875266697
1.4746898227885996
1.5096498554266478
1.5454034543659707
1.5729509245116886
1.597541244379934
1.6146975585847052
1.6266322555882198
1.6366564578953764
1.6438160643173567
1.6490661528970352
1.653361495618158
1.6567022020355613
1.6590883584943446
1.6605200272821585
1.6609972460178106
1.6590883584943446
1.655270483163226
1.6500206878975467
1.64333877133581
1.619064279794591
1.5876665554626128
1.524694418934522
1.5251349340583793
1.5356181387058347
1.5311191313135435
1.5409648477445372
2.0458825005947436
1.6583338462190658
1.7747533956705566
1.737589534333112
1.7299714502572214
1.735014373000642
1.7124910738468269
1.6663596381316
1.601929218610785
1.5310077871649568
1.4691336466606773
1.4291332179906444
1.4178676686083922
1.434613076475749
1.472699108762642
1.524701213270034
1.5802585693153066
1.6037165841482808
1.6223359038534393
1.6376110981911143
1.6495434214228586
1.6581339021724169
1.6643377182455317
1.6686324587510872
1.6719726930838055
1.674835667336439
1.6762671253223456
1.6767442736532312
1.675789974824545
1.6729270264492468
1.6672008977083583
1.6600428064483046
1.6519297332444705
1.6419068802498684
1.6046420454266936
1.5467267870508932
1.524725533583545
1.511267857025652
1.4841133702775797
1.5719603659656582
2.1779805230292912
1.9760254624056994
1.9333389027124879
1.8288769161620275
1.7817942819934343
1.7388698839798706
1.6755620587083946
1.5929240890657945
1.5046232675158884
1.4291538468626
1.380324546563636
1.3659927207189617
1.3861282773869303
1.4353071427394724
1.5031975318315027
1.575065983913874
1.6046714909376714
1.6299737530689535
1.6495434214228586
1.6629060999376422
1.6719726930838055
1.6781757056228146
1.682947003798203
1.6862867819472755
1.6881951779961464
1.6896264517287105
1.6901035385225605
1.6896264517287105
1.6881951779961464
1.6848554616815585
1.6800842511166487
1.6729270264492468
1.6648149201215228
1.655747724865642
1.6462024987817643
1.6371337790426497
1.6125368242343316
1.5996476441741545
1.5383810745364734
1.4545833215272437
2.3726490101989266
2.2375192143644167
2.066675585360299
1.9020280937282457
1.7634816949585086
1.6412791298203837
1.4986340944926368
1.3665022425801812
1.275608148205993
1.23847974821258
1.2524066911959417
1.3085424310252176
1.3955955194901979
1.5012770957594046
1.5645591636371368
1.6080136058111776
1.6404749709943791
1.6614744626532711
1.6753128221618832
1.6848554616815585
1.6910577054219027
1.695828405590056
1.6950124951714869
1.69236944116914
1.6893961217583953
1.6851535325477514
1.6798155896884175
1.6732547413944783
1.6653202689967115
1.6561184413279764
1.6454849929171211
1.6338790840696646
1.6232645482495602
1.6115150354741417
1.5977337096626105
1.5849078313302216
1.575206395628541
1.5677807278974334
1.5544700552575543
1.5253456087580741
-2.9019020406883267
-1.333641944743693
-0.688053457867334
-0.20528440046566054
0.18416356332731065
0.5223792130992868
0.8166621574899537
1.0658629421248416
1.2795931074390878
1.4116499114382783
1.5096255510241732
1.580319077528168
1.6247227853964021
1.655270483163226
1.6643161029177853
1.6693639248493117
1.6720113431679249
1.6725493365549182
1.6718325218414825
1.670533897829123
1.668265098963622
1.6652216540227907
1.6612151482801567
1.6566273093049548
1.6514982647614973
1.6460144306595572
1.6405064102422127
1.6354073260217787
1.6321012458202642
1.629401193747335
1.6283848838352972
1.6279811142123493
1.628045432669681
1.629764347496971
1.638494680333333
1.6698905392478394
1.7826135084706056
1.6200698220518253
-2.2913442409054103
-0.7720451003438754
0.14634202482495762
0.568537857986276
0.8446624866334095
1.0633917675684688
1.23613258500864
1.3525736926623728
1.4343598769655141
1.4978313866870203
1.5471932906205264
1.5834070614766602
1.6076702716477675
1.6246414245872378
1.6355278272321043
1.6425107969693882
1.6468722258411148
1.6494639431441802
1.6514261421143785
1.6519854295844885
1.6521672504154536
1.6515557808528558
1.6511452989462725
1.6499719280060894
1.6485623078446803
1.6470323070619235
1.6460903519538128
1.6456953528986986
1.6464414952415825
1.6496970164932276
1.6563983258285735
1.6674482009297737
1.680430872181247
1.6922318345406193
1.7065367281137578
1.7687906775600657
1.6614371647148185
1.7515096424933905
-0.8998875798317453
-1.036990712329356
-0.9160547684880128
0.2891772085949798
0.7949370599753236
1.022520336707308
1.1694558848743102
1.2813819256672674
1.369489953366113
1.4383894291143913
1.493466935747465
1.5368801098434124
1.5701606223352762
1.5935924502080456
1.6079820410396142
1.6150577206637866
1.617247042021884
1.6169251519226824
1.6162118655617133
1.6156448555516099
1.6154422161591555
1.6152295145510749
1.6155030819739282
1.616256551932812
1.617494728885743
1.619249937647012
1.6211148324193199
1.62431286827533
1.6282112474030455
1.634389080641247
1.6426329993707796
1.6552693606445388
1.6755959649887548
1.7113619386881542
1.746383530454378
1.75162825915282
1.7563959298691754
1.6753755836561126
1.6755309224084987
1.5779946235470783
)
;

boundaryField
{
    ".*"
    {
        type            zeroGradient;
    }
}


// ************************************************************************* //
