/*--------------------------------*- C++ -*----------------------------------*\
  =========                 |
  \\      /  F ield         | OpenFOAM: The Open Source CFD Toolbox
   \\    /   O peration     | Website:  https://openfoam.org
    \\  /    A nd           | Version:  6
     \\/     M anipulation  |
\*---------------------------------------------------------------------------*/
FoamFile
{
    version     2.0;
    format      ascii;
    class       volScalarField;
    location    "2100";
    object      epsilon;
}
// * * * * * * * * * * * * * * * * * * * * * * * * * * * * * * * * * * * * * //

dimensions      [0 2 -3 0 0 0 0];

internalField   nonuniform List<scalar> 
459
(
0.000468085
0.000606615
0.000631791
0.000726297
0.00082243
0.000919409
0.00102057
0.0011321
0.00122029
0.00126796
0.00125844
0.00118283
0.00104797
0.00088098
0.000719409
4.09411e-05
7.38004e-05
9.82589e-05
9.1104e-05
7.9519e-05
6.75225e-05
5.55415e-05
4.54578e-05
3.74551e-05
3.11646e-05
2.61957e-05
2.22689e-05
1.9113e-05
1.6527e-05
1.43523e-05
1.24442e-05
1.06753e-05
1.02117e-05
8.2692e-06
0.00123186
0.00180441
0.000575589
0.000552035
0.000578363
0.00061907
0.000676128
0.00075446
0.000833202
0.000890931
0.000906507
0.000867598
0.000776745
0.000657868
0.00058288
0.000752285
0.00017633
5.59573e-05
0.000125246
0.000123009
0.000106545
8.74051e-05
7.10872e-05
6.1791e-05
4.99664e-05
3.98305e-05
3.18108e-05
2.55988e-05
2.08328e-05
1.71582e-05
1.43263e-05
1.22698e-05
1.10311e-05
1.06354e-05
3.75559e-05
2.32458e-05
0.00228865
0.00453213
0.000749872
0.000536635
0.000558083
0.000621581
0.000713335
0.000831885
0.000950482
0.00103608
0.00106546
0.00102958
0.000935363
0.000803768
0.000682583
0.000612152
0.000681224
0.000459556
0.00029413
0.000205073
0.000149367
0.000112953
9.21769e-05
0.000161512
0.000111686
8.03437e-05
5.99497e-05
4.62067e-05
3.66431e-05
2.98028e-05
2.48212e-05
2.12044e-05
1.63139e-05
1.42886e-05
7.71106e-05
3.95451e-05
0.0037488
0.00944148
0.00125019
0.000564831
0.000558502
0.000647765
0.00078761
0.000972389
0.00113827
0.00124033
0.00126602
0.00121559
0.00110173
0.000941431
0.000778636
0.000654997
0.000620327
0.00117213
0.00063547
0.000361549
0.00023182
0.00016168
0.0001205
0.000102263
0.000230179
0.000175343
0.000143666
0.000123237
0.00010762
9.33272e-05
8.0802e-05
6.87284e-05
5.6042e-05
3.33015e-05
2.36616e-05
0.000147972
5.41643e-05
0.00575622
0.0167071
0.00254229
0.00072575
0.000607037
0.000715497
0.00094817
0.00124527
0.00144773
0.0015373
0.0015335
0.00144804
0.00129344
0.00108864
0.000867255
0.000664573
0.000509506
0.000434001
0.000334468
0.00024901
0.000185007
0.000140279
0.000110359
9.30785e-05
9.19535e-05
8.7291e-05
8.2512e-05
7.76661e-05
7.20062e-05
6.49835e-05
5.76849e-05
5.08947e-05
4.48328e-05
3.62291e-05
2.95091e-05
9.62404e-05
6.66329e-05
0.000101918
0.000170444
0.000240226
0.00852515
0.0245481
0.0056947
0.00151332
0.00100635
0.00108047
0.00150867
0.00183954
0.00197305
0.0019809
0.00190954
0.00176878
0.00155601
0.00128416
0.000988456
0.000714003
0.000500033
0.000361731
0.000273084
0.00020815
0.000158616
0.000123711
0.000101377
8.94866e-05
8.61458e-05
8.64041e-05
8.73566e-05
8.7464e-05
8.54185e-05
7.97652e-05
6.96358e-05
5.88594e-05
4.92464e-05
4.09758e-05
3.73352e-05
6.37264e-05
6.84084e-05
7.98071e-05
0.000319603
0.000279792
0.0116559
0.0291224
0.0114633
0.00487405
0.00330932
0.00297106
0.00308031
0.0030072
0.00283964
0.00264934
0.00244694
0.00220495
0.00189554
0.00152394
0.00113178
0.000775777
0.000506565
0.000335631
0.000237071
0.000175997
0.000135001
0.000109149
9.52419e-05
9.06683e-05
9.24765e-05
9.78942e-05
0.000104492
0.000111167
0.000116714
0.000118817
0.000113198
9.86669e-05
8.4742e-05
7.3709e-05
7.15493e-05
8.76708e-05
0.000116985
0.000194193
0.000475343
0.000437155
0.0122827
0.0310222
0.0175364
0.0123091
0.00936262
0.00735248
0.00580099
0.00472752
0.00401918
0.00354038
0.0031591
0.00276663
0.00230163
0.00177466
0.00124745
0.000789991
0.000470335
0.000283582
0.000190331
0.000142913
0.000115539
0.000100973
9.55771e-05
9.69196e-05
0.000103157
0.000112983
0.000125755
0.00014167
0.000161114
0.000184006
0.000208949
0.000227755
0.000238362
0.000266578
0.000328702
0.000514904
0.000969153
0.00191053
0.00618479
0.00142764
0.0112651
0.0186041
0.0150394
0.0114329
0.00883968
0.00711258
0.00601775
0.00534155
0.00489285
0.00450187
0.00403875
0.00343245
0.00268409
0.00189861
0.00119718
0.000640641
0.000348774
0.000217469
0.000155862
0.000124908
0.000108945
0.000102078
0.000101371
0.000105218
0.000112866
0.000124243
0.000139986
0.000161545
0.000191203
0.000232204
0.000289008
0.000367241
0.000475242
0.000633369
0.000866473
0.00117937
0.0015327
0.00183926
0.00207229
0.00114182
0.00435891
0.00746802
0.0084574
0.00865029
0.00841194
0.00785987
0.00701184
0.00593405
0.00469961
0.00342477
0.00217819
0.00127825
0.000738603
0.000428643
0.000275472
0.000203361
0.000167371
0.000148048
0.000137561
0.000132393
0.000130769
0.000131943
0.000135837
0.000142809
0.000153629
0.000169616
0.000192878
0.000226741
0.000276478
0.000349037
0.000452932
0.000599058
0.000796402
0.00103781
0.00129542
0.00154786
0.00134916
0.000673884
0.0039982
0.00828304
0.00850034
0.00696993
0.00615162
0.0052673
0.00422044
0.00319069
0.00230132
0.00157174
0.001012
0.000648185
0.000443417
0.000337998
0.000288618
0.000264943
0.000250207
0.000237077
0.000224802
0.000214025
0.000204632
0.000196828
0.000191326
0.000189253
0.000192005
0.000201181
0.000218714
0.000247195
0.00029062
0.000354089
0.000444201
0.000567703
0.00072707
0.000916615
0.00112049
0.00139307
0.000742484
0.000748425
0.00277055
0.00329899
0.00372665
0.00460161
0.00409355
0.00352089
0.00313964
0.00272594
0.00226034
0.00179242
0.00135948
0.000987904
0.000695533
0.000490828
0.000360215
0.000279345
0.000228929
0.000196965
0.000176582
0.000164399
0.000157223
0.000153137
0.000151684
0.000152826
0.000156813
0.000164069
0.000175172
0.000190953
0.000212741
0.00024291
0.000282463
0.000333829
0.000399854
0.000484046
0.00058964
0.000731497
0.000767488
0.00058908
0.000467596
0.000648987
)
;

boundaryField
{
    floor
    {
        Cmu             0.09;
        kappa           0.41;
        E               9.8;
        type            epsilonWallFunction;
        value           nonuniform List<scalar> 
29
(
0.000719409
4.09411e-05
7.38004e-05
9.82589e-05
9.1104e-05
7.9519e-05
6.75225e-05
5.55415e-05
4.54578e-05
3.74551e-05
3.11646e-05
2.61957e-05
2.22689e-05
1.9113e-05
1.6527e-05
1.43523e-05
1.24442e-05
1.06753e-05
1.02117e-05
8.2692e-06
8.2692e-06
2.32458e-05
3.95451e-05
5.41643e-05
0.000719409
4.09411e-05
5.59573e-05
0.000459556
0.00117213
)
;
    }
    ceiling
    {
        Cmu             0.09;
        kappa           0.41;
        E               9.8;
        type            epsilonWallFunction;
        value           nonuniform List<scalar> 
43
(
0.00277055
0.00329899
0.00372665
0.00460161
0.00409355
0.00352089
0.00313964
0.00272594
0.00226034
0.00179242
0.00135948
0.000987904
0.000695533
0.000490828
0.000360215
0.000279345
0.000228929
0.000196965
0.000176582
0.000164399
0.000157223
0.000153137
0.000151684
0.000152826
0.000156813
0.000164069
0.000175172
0.000190953
0.000212741
0.00024291
0.000282463
0.000333829
0.000399854
0.000484046
0.00058964
0.000731497
0.000767488
0.00058908
0.000467596
0.000648987
0.0112651
0.0186041
0.0039982
)
;
    }
    sWall
    {
        Cmu             0.09;
        kappa           0.41;
        E               9.8;
        type            epsilonWallFunction;
        value           uniform 0.00277055;
    }
    nWall
    {
        Cmu             0.09;
        kappa           0.41;
        E               9.8;
        type            epsilonWallFunction;
        value           nonuniform List<scalar> 6(0.000240226 0.000279792 0.000437155 0.000673884 0.000748425 0.000648987);
    }
    sideWalls
    {
        type            empty;
    }
    glass1
    {
        Cmu             0.09;
        kappa           0.41;
        E               9.8;
        type            epsilonWallFunction;
        value           nonuniform List<scalar> 9(0.000468085 0.00123186 0.00228865 0.0037488 0.00575622 0.00852515 0.0116559 0.0122827 0.0112651);
    }
    glass2
    {
        Cmu             0.09;
        kappa           0.41;
        E               9.8;
        type            epsilonWallFunction;
        value           nonuniform List<scalar> 2(0.00142764 0.00114182);
    }
    sun
    {
        Cmu             0.09;
        kappa           0.41;
        E               9.8;
        type            epsilonWallFunction;
        value           nonuniform List<scalar> 
14
(
0.000468085
0.000606615
0.000631791
0.000726297
0.00082243
0.000919409
0.00102057
0.0011321
0.00122029
0.00126796
0.00125844
0.00118283
0.00104797
0.00088098
)
;
    }
    heatsource1
    {
        Cmu             0.09;
        kappa           0.41;
        E               9.8;
        type            epsilonWallFunction;
        value           nonuniform List<scalar> 3(0.000101918 0.000170444 0.000240226);
    }
    heatsource2
    {
        Cmu             0.09;
        kappa           0.41;
        E               9.8;
        type            epsilonWallFunction;
        value           nonuniform List<scalar> 4(0.000752285 0.00017633 0.00017633 0.000681224);
    }
    Table_master
    {
        Cmu             0.09;
        kappa           0.41;
        E               9.8;
        type            epsilonWallFunction;
        value           nonuniform List<scalar> 9(0.000161512 0.000111686 8.03437e-05 5.99497e-05 4.62067e-05 3.66431e-05 2.98028e-05 2.48212e-05 2.12044e-05);
    }
    Table_slave
    {
        Cmu             0.09;
        kappa           0.41;
        E               9.8;
        type            epsilonWallFunction;
        value           nonuniform List<scalar> 9(0.000230179 0.000175343 0.000143666 0.000123237 0.00010762 9.33272e-05 8.0802e-05 6.87284e-05 5.6042e-05);
    }
    inlet
    {
        type            turbulentMixingLengthDissipationRateInlet;
        mixingLength    0.01;
        phi             phi;
        k               k;
        value           uniform 0.000101881;
    }
    outlet
    {
        type            zeroGradient;
    }
}


// ************************************************************************* //
