/*--------------------------------*- C++ -*----------------------------------*=========                 |
  \      /  F ield         | OpenFOAM: The Open Source CFD Toolbox
   \    /   O peration     | Website:  https://openfoam.org
    \  /    A nd           | Version:  6
     \/     M anipulation  |
\*---------------------------------------------------------------------------*/
FoamFile
{
    version     2.0;
    format      ascii;
    class       volScalarField;
    location    "2100";
    object      PMV;
}
// * * * * * * * * * * * * * * * * * * * * * * * * * * * * * * * * * * * * * //

dimensions      [0 0 0 0 0 0 0];

internalField   nonuniform List<scalar> 
459
(
1.6438551472054002
1.4289534083498128
1.4051271999891046
1.3829145987605118
1.3670056237267787
1.3569281873975398
1.3520369913952668
1.3534698063051938
1.3598201169060669
1.3723428597339675
1.3916153114203247
1.419991756967304
1.4589120967061882
1.503933835427372
1.5229091537873345
1.5698869431364526
1.559385189267194
1.5565205473472636
1.5569979918990893
1.5579528759298715
1.5584303154052845
1.559385189267194
1.5600284135851634
1.5588431318647546
1.5586667189718115
1.5589479246899207
1.5596169936818243
1.5607823198820427
1.5623421833442326
1.562727194161797
1.562727194161797
1.5632046165993552
1.5632046165993552
1.572273910049008
1.6073173230575395
1.4489100154451833
1.4437930766836928
1.4232674498626574
1.411041976270389
1.4034374404293835
1.3998587105585258
1.4010404636951694
1.4051444350701896
1.411499982663909
1.421797053705639
1.4386308244450439
1.463874872306824
1.493669969801734
1.5187972368589486
1.5149766008923984
1.5068574238474
1.515285758991302
1.5555656531797437
1.5522234706100293
1.552700930294645
1.54931242726997
1.5445046526052382
1.5423315751079052
1.5411228153881926
1.5405489540347925
1.5391480209755906
1.5380678976955462
1.5366016659679822
1.5352446046344201
1.5345080630570773
1.5347388523068866
1.540277682361916
1.5441064015208772
1.545538860216802
1.5240249122367648
1.6521795948622042
1.4503886850447203
1.4784637671060537
1.4678788677732828
1.46514802278066
1.464516777617901
1.4655150911629558
1.468149426656663
1.4679967471573399
1.4637587163524204
1.45896295584719
1.4594475039591572
1.4683880112412677
1.4871907921625924
1.518728989402449
1.5192748093934443
1.5173645099567594
1.4505518082877062
1.5040171240889078
1.5211978663576364
1.5287661862011244
1.5350196863413643
1.5392167177435365
1.5406991922579998
1.5439867660050248
1.5454823754869147
1.5443188420702352
1.5426234567325112
1.5404997540995415
1.537424434183783
1.5335675435710938
1.5265515184608787
1.5260739209206327
1.5402864395241054
1.5256762062516382
1.4632034622749905
1.7301589796677204
1.4547686336848578
1.5047920608431127
1.5118942056233835
1.5270142094879027
1.5413872456693594
1.5533622711706128
1.559560059212012
1.5493045143915118
1.5233758349031445
1.491999940318563
1.4682938918966024
1.4590965180106281
1.467196935795404
1.4926619225995752
1.5216626487425604
1.5254831104331936
1.4936419732259378
1.4790661004047168
1.5061109255652583
1.5300134755890564
1.5456431723562614
1.5570209075938586
1.5635921203786858
1.5630413255970435
1.5586651923559747
1.5547487819409078
1.5520903650201918
1.5498809523835955
1.5495354322414843
1.5526937509931928
1.5624278401326561
1.5827043853806315
1.5732286845900603
1.5569979918990893
1.5057514295462586
1.4135697371174918
1.820906509982353
1.4742621855000644
1.5304233758776198
1.5532049279590818
1.593372947998205
1.6379905351885995
1.6795584219476518
1.6740194025992883
1.621858565583088
1.5597068977899675
1.5007594416084762
1.459304307295858
1.439982066249724
1.4424861892313299
1.4631255720746077
1.4925061267804345
1.512089744931931
1.5138961784988543
1.5183295075124723
1.5409679710042323
1.5684561118948765
1.5832533914167057
1.5904134138767525
1.596141137576721
1.6013913181774173
1.6056867530491632
1.6095047896624795
1.609528063373234
1.6046126895850217
1.5998842915968305
1.596678952521822
1.5954282616069397
1.5957139834220135
1.5812323318311707
1.5553935641626513
1.4875030953558652
1.4775934308011143
1.6004367565675224
1.5841615282465713
1.4131970955623552
1.9106929945558924
1.516859740885324
1.5813317887536427
1.6020278127398115
1.6552263825943203
1.6920384722337973
1.719694209553564
1.687625925695374
1.6142882299244887
1.5428204261244014
1.4793441894123247
1.4350016210778591
1.415540063065888
1.4209509357901622
1.446739459537985
1.4835851024019906
1.5201449200248227
1.548289366656617
1.5684547421063604
1.582298691181848
1.5942319256365927
1.604254958266004
1.6118910010482366
1.6176177137296481
1.6223897624696315
1.6266844399661613
1.6300246347669645
1.6319332740388963
1.6324104288971562
1.631456117194766
1.6276387911880985
1.621912566322585
1.6147543918654432
1.5887543915231133
1.554745721635075
1.4866729610827512
1.4861906551696171
1.491686501109234
1.4859993990518603
1.4978613824956548
1.9991477801935056
1.6121363167561296
1.7327795120400697
1.6968092988495314
1.691051832515129
1.6955360123974568
1.6699794140610233
1.6215259994361781
1.5563412428542662
1.4864968584824134
1.4274885163061832
1.3920742663623384
1.385502418395919
1.4059749026169908
1.4477822197942933
1.5020855684183034
1.5531783883049517
1.5732286845900603
1.591368052764084
1.606164014221798
1.6176177137296481
1.6266844399661613
1.633364732648186
1.6381361315758478
1.6424302186624116
1.6457699505799652
1.6476783238967345
1.648632498251103
1.6481554121009352
1.6457699505799652
1.640998874496125
1.633364732648186
1.6242985275733712
1.6128454722896273
1.5732737913048547
1.5116778630812333
1.4875142004227107
1.4703958697384456
1.4413455452317472
1.5318098234281288
2.131963097669963
1.9339391283001186
1.8918424734470434
1.7858698520389757
1.7384597199427338
1.6946031033900528
1.6289587534697254
1.545465892072165
1.4582741110922155
1.3858163492886242
1.3418084468957543
1.33295697877199
1.3586797127037602
1.4119997728613995
1.4832120511194775
1.5469713040827913
1.5760929661124397
1.6009140383023819
1.6190493486736306
1.6319332740388963
1.640998874496125
1.6476783238967345
1.6529261808352638
1.6567426465631645
1.6596049081033855
1.661513040428316
1.6619900682362092
1.6619900682362092
1.6605589784803962
1.6581737867695956
1.653403246333135
1.646247046980084
1.6371818678204093
1.6271616165601905
1.61666328079551
1.6052094899977305
1.585364240266562
1.5720548920001733
1.5061453351922058
1.4102017518101557
2.3285331123826976
2.194320200269938
2.0237818011816318
1.8597322538939183
1.7187630486738845
1.5942928056004442
1.4470609678417523
1.3167228799428865
1.2317176099159997
1.2017655171858652
1.2225482647453112
1.2851740543375296
1.3771169625136113
1.486826345120434
1.5388539268573962
1.5813439838001733
1.6118910010482366
1.631456117194766
1.6452928521359311
1.6543573710974784
1.6610360105089927
1.6658062144407917
1.668571991658612
1.666399408737388
1.6632728710999858
1.6591317976637616
1.6532128250228229
1.6458853581000208
1.6375428093817799
1.6269598720617808
1.6154364723154555
1.6024759307742613
1.5906618706870668
1.5775004847974907
1.5619968502537374
1.547852597235734
1.5369565247950643
1.5294031168000322
1.5156502064596895
1.485530498245583
-2.8777499805645386
-1.3429753178966242
-0.719729122394202
-0.23736485557949305
0.16374263101578163
0.5098369589997
0.8068641284507496
1.058572976831361
1.274111628614938
1.3950584594337123
1.4925284057365709
1.5569979918990893
1.59852761106838
1.6276387911880985
1.6362750042707057
1.6415913311685957
1.6447614194596627
1.6457634608455471
1.6454954157238197
1.6446326166510938
1.6427373779132854
1.6399543323249528
1.636036720967614
1.6313199014201953
1.6253520578228478
1.6193114624727694
1.6126348939340172
1.607319112780096
1.6028784360436623
1.599524093528459
1.597464326675975
1.5964574731871255
1.595296889843138
1.5959517603244477
1.604599775048215
1.6363344484237585
1.7497249947295928
1.5826291643929178
-2.2767180747587665
-0.7711344235686866
0.1388189992331512
0.5589407141038532
0.8330477290474875
1.047870196138079
1.2166449410043074
1.3228430006427951
1.4058587491964214
1.4709629797203008
1.520651451243814
1.5559449127099212
1.580282030933921
1.5966590260464466
1.6077330897428037
1.6147801262390133
1.619178072126327
1.6218498157047425
1.6234650974305405
1.6241458570979188
1.623962061421961
1.6234953801325982
1.622782277960407
1.6213379143296092
1.6201476285114458
1.6188019913600835
1.6174805850083436
1.6171304983149564
1.617337350154092
1.6205219892713807
1.6272111930077318
1.6381289283306526
1.6504596769579056
1.6613171130717457
1.6766359191063078
1.735425832486575
1.6257317173014545
1.7188962561834646
-0.9129666928925898
-1.0461346362227262
-0.9256888552309117
0.2706283844117503
0.7759634565821883
1.0014876676742068
1.1435597387130825
1.2520716211943406
1.3381944629278284
1.4069131961314485
1.4628971937687054
1.507514788746951
1.5410621572848036
1.564254493053325
1.5781061015707758
1.5844857155190413
1.5864218960059544
1.585358179388456
1.583420087279799
1.5822169200692096
1.5808658911324784
1.5800081974923117
1.5796756468434008
1.5794029067329163
1.5797608526738212
1.5813456598137674
1.5832889437345723
1.5863381372862813
1.5909037723898998
1.5976143345841545
1.6066288346093511
1.620247807264074
1.6424158366287367
1.6808118736356872
1.7139729739345044
1.719694209553564
1.7239849120686295
1.635449493476388
1.636941099812736
1.5416815509639796
)
;

boundaryField
{
    ".*"
    {
        type            zeroGradient;
    }
}


// ************************************************************************* //
