/*--------------------------------*- C++ -*----------------------------------*\
  =========                 |
  \\      /  F ield         | OpenFOAM: The Open Source CFD Toolbox
   \\    /   O peration     | Website:  https://openfoam.org
    \\  /    A nd           | Version:  6
     \\/     M anipulation  |
\*---------------------------------------------------------------------------*/
FoamFile
{
    version     2.0;
    format      ascii;
    class       volScalarField;
    location    "2900";
    object      nut;
}
// * * * * * * * * * * * * * * * * * * * * * * * * * * * * * * * * * * * * * //

dimensions      [0 2 -1 0 0 0 0];

internalField   nonuniform List<scalar> 
459
(
0.00113648
0.00124444
0.0012684
0.00133103
0.00138973
0.00144536
0.00150078
0.00155186
0.0015863
0.00159829
0.00158275
0.00153657
0.00145884
0.00135423
0.00123632
0.000514288
0.000621842
0.000699067
0.000697002
0.000673908
0.000642863
0.000603209
0.000563752
0.000527917
0.000496095
0.000467911
0.000442872
0.000420626
0.000400648
0.000382241
0.000364514
0.000346228
0.000334995
0.000307205
0.0015472
0.00386886
0.00373756
0.00436251
0.00497916
0.00558752
0.00610541
0.00651251
0.00687293
0.0071583
0.00733171
0.00735499
0.00716966
0.00662485
0.00511411
0.00127031
0.000731469
0.00054754
0.00114964
0.00160234
0.00193338
0.00211007
0.00210081
0.00167601
0.00144217
0.00127591
0.00114866
0.00104763
0.000965422
0.0008942
0.000828011
0.000763975
0.000707203
0.000657062
0.000786057
0.000407525
0.00188644
0.0052903
0.00466397
0.00583714
0.00643509
0.00688312
0.00723233
0.00752798
0.00784034
0.00815557
0.00843356
0.00862834
0.00868608
0.00851464
0.00785757
0.00595106
0.00129852
0.00106213
0.00155202
0.00200899
0.00242541
0.00270876
0.00263094
0.000856183
0.000755542
0.000674676
0.000609478
0.000556422
0.000512783
0.000476615
0.000446675
0.000422481
0.000456137
0.000527379
0.000893559
0.00047617
0.00220972
0.00673261
0.0047159
0.00618285
0.00670094
0.00689905
0.00704715
0.00723128
0.0075015
0.00784163
0.00819868
0.00851724
0.00873623
0.00877861
0.00858255
0.00784443
0.00537395
0.00153232
0.00191558
0.00249406
0.00306153
0.00351078
0.00377693
0.00352061
0.00096308
0.000876983
0.000815591
0.000768563
0.000728096
0.000690993
0.00065525
0.000617729
0.000574233
0.000538048
0.000554463
0.00104988
0.000526986
0.0025377
0.00856356
0.00522381
0.00600692
0.0066548
0.0067263
0.00671436
0.00685289
0.00709939
0.00745995
0.00786437
0.00823862
0.00849292
0.00857144
0.0084662
0.00814034
0.00739623
0.00613366
0.00570211
0.00556511
0.00551507
0.00546956
0.00538341
0.00514029
0.00430448
0.00390633
0.00367384
0.00349295
0.00330328
0.00303085
0.00267172
0.00224492
0.00177864
0.00131672
0.000973885
0.00102775
0.000692252
0.000641579
0.000766486
0.000858678
0.00288391
0.0105483
0.00715721
0.00613125
0.00659822
0.00672562
0.00668095
0.00677116
0.00696413
0.00729381
0.00772324
0.00814055
0.00841728
0.0084728
0.00831538
0.00802903
0.00770655
0.00739602
0.00721338
0.007046
0.00683507
0.00659094
0.00632563
0.00602063
0.00561772
0.00527523
0.00498366
0.00471282
0.00444267
0.00414746
0.00377079
0.00329887
0.00273558
0.0021204
0.0015847
0.00118148
0.000927493
0.000818031
0.00118371
0.000901064
0.00319147
0.0118978
0.00986146
0.00790016
0.00756232
0.0073037
0.00701922
0.00690264
0.0070217
0.00737064
0.00785803
0.0083241
0.00860467
0.00860701
0.0083614
0.00802595
0.00780605
0.00776485
0.00774518
0.00758263
0.00727136
0.0068772
0.00644827
0.00601039
0.00558531
0.00521806
0.0048999
0.00461416
0.00435544
0.00412681
0.00392427
0.00360213
0.00314686
0.00260103
0.00209006
0.00163285
0.00133361
0.00127656
0.00134134
0.00104095
0.0032445
0.010389
0.00938041
0.0086828
0.00800822
0.0073301
0.00690676
0.00684837
0.00714409
0.00769415
0.00832534
0.00882879
0.00903592
0.00889153
0.00849313
0.00808911
0.00792285
0.0079355
0.00779095
0.00740639
0.0068711
0.00627539
0.00569036
0.00517164
0.0047488
0.00441687
0.00415004
0.00393279
0.00376354
0.00364847
0.00359426
0.00356115
0.0032909
0.0029281
0.00262176
0.00249509
0.0026754
0.00325612
0.00408641
0.00160183
0.00315274
0.0037173
0.00409561
0.00418691
0.00439808
0.00486873
0.00561534
0.00658674
0.00765604
0.00864787
0.00937598
0.00968458
0.00952719
0.00901635
0.00842577
0.00806267
0.0078121
0.00750844
0.00701765
0.00636202
0.00564335
0.00496496
0.00439842
0.00396564
0.00364642
0.00340421
0.00320887
0.00304308
0.00289688
0.00276285
0.00263516
0.00251778
0.00242542
0.00236528
0.00235669
0.0023863
0.00238171
0.00227911
0.00211647
0.00147373
0.00144896
0.00367612
0.0066642
0.00862789
0.00993576
0.0107471
0.0111001
0.0110635
0.0107163
0.0101449
0.00931777
0.00845795
0.00778718
0.00729978
0.00679054
0.00616576
0.00546014
0.0047508
0.0041098
0.0036003
0.00323081
0.00297066
0.00278324
0.00264134
0.00252922
0.00243964
0.00237068
0.00232409
0.00230514
0.00231215
0.00233342
0.00236569
0.0023976
0.00239755
0.00231809
0.00214318
0.00188461
0.00118755
0.00219057
0.00675861
0.00935426
0.0100488
0.0102774
0.010152
0.00969932
0.00903991
0.00828862
0.00754995
0.00684805
0.00624677
0.0057347
0.00521402
0.00464919
0.00408668
0.00357603
0.00314717
0.00280978
0.00255424
0.00237293
0.00224775
0.00216478
0.00211591
0.00209624
0.00210146
0.00212594
0.00216455
0.00222579
0.00230468
0.00239724
0.00249573
0.00258338
0.00264561
0.00263328
0.00263357
0.00237792
0.00120232
0.00196226
0.00208124
0.00216704
0.00233744
0.00224714
0.00216217
0.002093
0.00199234
0.0018558
0.00169145
0.00150783
0.00132069
0.00115207
0.00101591
0.000912992
0.000836921
0.000780709
0.000739439
0.000710437
0.000692316
0.000684001
0.000683858
0.000689619
0.000700417
0.000715741
0.000735377
0.000759349
0.000787954
0.000821898
0.000862161
0.000908086
0.000960158
0.00101876
0.00108438
0.00115695
0.00125347
0.00128048
0.0012485
0.00116458
0.00107416
)
;

boundaryField
{
    floor
    {
        type            nutkWallFunction;
        Cmu             0.09;
        kappa           0.41;
        E               9.8;
        value           nonuniform List<scalar> 
29
(
0.000148171
6.15406e-05
7.50738e-05
8.46132e-05
8.43597e-05
8.152e-05
7.76838e-05
7.27511e-05
6.78036e-05
6.32734e-05
5.92186e-05
5.56004e-05
5.23629e-05
4.94673e-05
4.68502e-05
4.44241e-05
4.20737e-05
3.96334e-05
3.81261e-05
3.43679e-05
3.43678e-05
4.77523e-05
5.66627e-05
6.31544e-05
0.000148171
6.15405e-05
6.57584e-05
0.000128001
0.000181746
)
;
    }
    ceiling
    {
        type            nutkWallFunction;
        Cmu             0.09;
        kappa           0.41;
        E               9.8;
        value           nonuniform List<scalar> 
43
(
0.000229093
0.000242018
0.000251292
0.000269741
0.000260104
0.000250966
0.000243493
0.000232561
0.000217631
0.000199495
0.000179003
0.00015783
0.000138462
0.000122589
0.00011043
0.000101341
9.45621e-05
8.95491e-05
8.60063e-05
8.3784e-05
8.2762e-05
8.27444e-05
8.34527e-05
8.47783e-05
8.66555e-05
8.90538e-05
9.19716e-05
9.5439e-05
9.95345e-05
0.000104367
0.000109847
0.000116021
0.000122925
0.0001306
0.000139028
0.000150146
0.00015324
0.000149577
0.000139912
0.00012941
0.000355985
0.000414143
0.000253623
)
;
    }
    sWall
    {
        type            nutkWallFunction;
        Cmu             0.09;
        kappa           0.41;
        E               9.8;
        value           uniform 0.000229158;
    }
    nWall
    {
        type            nutkWallFunction;
        Cmu             0.09;
        kappa           0.41;
        E               9.8;
        value           nonuniform List<scalar> 6(0.000103952 0.000109014 0.000125531 0.000142576 0.000144279 0.000129418);
    }
    sideWalls
    {
        type            empty;
    }
    glass1
    {
        type            nutkWallFunction;
        Cmu             0.09;
        kappa           0.41;
        E               9.8;
        value           nonuniform List<scalar> 9(0.000136785 0.000183669 0.000221337 0.000256546 0.00029171 0.000328312 0.000360446 0.000365965 0.000356449);
    }
    glass2
    {
        type            nutkWallFunction;
        Cmu             0.09;
        kappa           0.41;
        E               9.8;
        value           nonuniform List<scalar> 2(0.000189624 0.000175253);
    }
    sun
    {
        type            nutkWallFunction;
        Cmu             0.09;
        kappa           0.41;
        E               9.8;
        value           nonuniform List<scalar> 
14
(
0.000136658
0.000149104
0.000151851
0.000159003
0.000165672
0.000171964
0.000178206
0.000183936
0.000187787
0.000189126
0.00018739
0.000182222
0.000173483
0.000161641
)
;
    }
    heatsource1
    {
        type            nutkWallFunction;
        Cmu             0.09;
        kappa           0.41;
        E               9.8;
        value           nonuniform List<scalar> 3(7.75263e-05 9.28382e-05 0.000103949);
    }
    heatsource2
    {
        type            nutkWallFunction;
        Cmu             0.09;
        kappa           0.41;
        E               9.8;
        value           nonuniform List<scalar> 4(0.000152062 8.85785e-05 8.85785e-05 0.000155289);
    }
    Table_master
    {
        type            nutkWallFunction;
        Cmu             0.09;
        kappa           0.41;
        E               9.8;
        value           nonuniform List<scalar> 9(0.000103649 9.15095e-05 8.16164e-05 7.3537e-05 6.68849e-05 6.13553e-05 5.67285e-05 5.28652e-05 4.97197e-05);
    }
    Table_slave
    {
        type            nutkWallFunction;
        Cmu             0.09;
        kappa           0.41;
        E               9.8;
        value           nonuniform List<scalar> 9(0.000116363 0.000106137 9.87743e-05 9.30903e-05 8.81664e-05 8.36232e-05 7.92188e-05 7.45643e-05 6.91253e-05);
    }
    inlet
    {
        type            calculated;
        value           uniform 0.000100623;
    }
    outlet
    {
        type            calculated;
        value           nonuniform List<scalar> 2(0.00196226 0.00208124);
    }
}


// ************************************************************************* //
