/*--------------------------------*- C++ -*----------------------------------*\
  =========                 |
  \\      /  F ield         | OpenFOAM: The Open Source CFD Toolbox
   \\    /   O peration     | Website:  https://openfoam.org
    \\  /    A nd           | Version:  6
     \\/     M anipulation  |
\*---------------------------------------------------------------------------*/
FoamFile
{
    version     2.0;
    format      ascii;
    class       volScalarField;
    location    "2600";
    object      alphat;
}
// * * * * * * * * * * * * * * * * * * * * * * * * * * * * * * * * * * * * * //

dimensions      [1 -1 -1 0 0 0 0];

internalField   nonuniform List<scalar> 
459
(
0.00132524
0.001453
0.00148146
0.00155477
0.00162351
0.00168876
0.00175394
0.00181346
0.00185325
0.00186648
0.00184734
0.00179222
0.00169995
0.00157574
0.00143484
0.000599726
0.000724461
0.000815264
0.000813801
0.000787011
0.000750749
0.000704165
0.000657776
0.000615688
0.000578358
0.000545328
0.000516004
0.00048994
0.000466555
0.000445024
0.000424304
0.000402935
0.000389567
0.000356915
0.00180205
0.0045261
0.00438046
0.00511487
0.00583899
0.00655135
0.00715299
0.00762712
0.00804453
0.00837201
0.00856759
0.00858798
0.00836778
0.00773817
0.00600869
0.00147468
0.000861075
0.000636676
0.00134045
0.00187174
0.00226166
0.00247208
0.00246379
0.00196225
0.00168832
0.001494
0.00134552
0.00122782
0.00113215
0.00104964
0.000972485
0.000897256
0.000830198
0.000770563
0.000915823
0.000473185
0.00219463
0.0061854
0.0054703
0.00684502
0.00754345
0.00806375
0.0084663
0.00880821
0.00916908
0.009532
0.00985032
0.0100699
0.010129
0.00992078
0.00914281
0.00692066
0.0015142
0.00123096
0.00180207
0.00233769
0.00282849
0.00316531
0.00307966
0.000999837
0.000882115
0.000787417
0.000711023
0.000648842
0.000597701
0.000555319
0.000520249
0.000491924
0.000531768
0.00061576
0.00103856
0.000552422
0.00256781
0.00786018
0.00553032
0.00725089
0.00785329
0.00807848
0.0082443
0.00845514
0.00876784
0.00916154
0.009574
0.00993851
0.0101833
0.010218
0.00997779
0.00910925
0.0061928
0.00178555
0.0022241
0.00289263
0.00355662
0.00408928
0.00441096
0.00412103
0.00112425
0.00102348
0.000951353
0.000895895
0.000848098
0.000804516
0.000762517
0.000718493
0.000667598
0.000625899
0.000645202
0.00121675
0.000611178
0.00294587
0.00998441
0.00611676
0.00704506
0.0077994
0.00787585
0.0078507
0.00800766
0.00829463
0.00871403
0.009183
0.00961196
0.00989525
0.00997066
0.00983268
0.00944308
0.00857446
0.00712641
0.00662945
0.00647815
0.00643355
0.00639631
0.00630962
0.00603432
0.00505355
0.00458325
0.0043066
0.00409016
0.0038635
0.00353868
0.00311509
0.00261434
0.00206881
0.00152984
0.00113082
0.00119144
0.000800562
0.000744518
0.000889453
0.000995954
0.00334483
0.0122865
0.00836223
0.00718373
0.00773375
0.00785829
0.00780369
0.00790354
0.0081298
0.00851836
0.0090194
0.00949852
0.00980537
0.00984944
0.00964545
0.00929774
0.00891944
0.00856984
0.00837669
0.00820794
0.0079907
0.00773057
0.00743665
0.00708504
0.00660888
0.00619861
0.00584664
0.0055194
0.00519437
0.00484055
0.00439461
0.00383972
0.00318002
0.00246165
0.00183778
0.00136819
0.00107141
0.000944586
0.00136708
0.00104465
0.00369846
0.0138436
0.0114969
0.00922783
0.00884287
0.00851398
0.00817526
0.00804355
0.00819258
0.00860936
0.00918033
0.00971464
0.0100216
0.0099978
0.00968516
0.00927633
0.00901697
0.00898514
0.0089958
0.00884804
0.00852314
0.00808839
0.0075954
0.00707608
0.00656304
0.00611646
0.00572957
0.00538348
0.00507233
0.0047999
0.0045617
0.00418071
0.00364873
0.00301399
0.00242139
0.0018895
0.00154088
0.0014723
0.00154446
0.00120364
0.00375666
0.0120564
0.0108995
0.0100746
0.00928354
0.00849965
0.00802383
0.0079778
0.00834343
0.00899837
0.00973439
0.0103045
0.0105167
0.0103138
0.00981629
0.00932611
0.00913521
0.00918126
0.00906428
0.00866391
0.00807058
0.00738468
0.00669214
0.00606692
0.00555283
0.00514889
0.00482542
0.0045639
0.00436205
0.00422621
0.00416238
0.00411976
0.00380477
0.00338435
0.0030295
0.00288186
0.00308593
0.00375438
0.00472097
0.0018572
0.00364631
0.0043028
0.00474229
0.00485523
0.00511447
0.00568276
0.00657534
0.00772743
0.00898544
0.0101392
0.0109672
0.0112874
0.0110592
0.0104213
0.00969747
0.00926094
0.00899286
0.00868724
0.00816863
0.00744079
0.00661531
0.00581624
0.0051374
0.00461408
0.00422738
0.00393553
0.00370276
0.00350817
0.00333899
0.00318529
0.00303889
0.00290462
0.00279823
0.00272942
0.00272079
0.00275701
0.00275418
0.00263791
0.00245088
0.00170841
0.00172972
0.00438847
0.00792789
0.0102155
0.0117165
0.0126287
0.0130017
0.0129168
0.012464
0.0117403
0.0107226
0.00969204
0.00890526
0.00835662
0.00780416
0.00712271
0.00633479
0.00552402
0.00477638
0.00417088
0.00372727
0.00341408
0.00318974
0.00302236
0.00289296
0.00279219
0.00271669
0.00266742
0.0026498
0.00266093
0.0026879
0.00272737
0.00276642
0.00276852
0.00267866
0.0024779
0.00218047
0.00137662
0.00261778
0.00806904
0.0110448
0.0118073
0.0120291
0.0118407
0.011275
0.0104709
0.00956209
0.00867344
0.00783583
0.00713219
0.00654736
0.00596309
0.00533031
0.00469472
0.00411096
0.00361583
0.00322361
0.00292361
0.00271033
0.00256379
0.00246797
0.00241307
0.002393
0.00240231
0.00243411
0.00248278
0.00255689
0.00265083
0.00276022
0.00287635
0.00297999
0.00305376
0.00304102
0.00304392
0.00275311
0.00139372
0.00231566
0.00245688
0.00255834
0.00273828
0.00262249
0.00251907
0.00243451
0.00231326
0.00215045
0.00195556
0.00173887
0.00151927
0.00132313
0.00116606
0.00104818
0.000961581
0.000897919
0.000851425
0.000818966
0.000798871
0.000789815
0.00079023
0.000797343
0.000810182
0.000828179
0.000851096
0.000878976
0.000912167
0.000951495
0.000998019
0.00105109
0.00111126
0.00117903
0.00125498
0.00133911
0.00145065
0.00148259
0.00144601
0.00134883
0.0012442
)
;

boundaryField
{
    floor
    {
        type            compressible::alphatWallFunction;
        Prt             0.85;
        value           nonuniform List<scalar> 
29
(
0.000202161
8.43006e-05
0.000102752
0.00011594
0.000115729
0.000111857
0.00010659
9.9778e-05
9.29405e-05
8.6686e-05
8.10946e-05
7.61101e-05
7.16534e-05
6.76655e-05
6.40649e-05
6.07296e-05
5.75004e-05
5.41491e-05
5.2041e-05
4.68524e-05
4.68518e-05
6.50888e-05
7.71847e-05
8.60142e-05
0.000202159
8.42996e-05
8.98107e-05
0.000174378
0.000248962
)
;
    }
    ceiling
    {
        type            compressible::alphatWallFunction;
        Prt             0.85;
        value           nonuniform List<scalar> 
43
(
0.000317723
0.000335769
0.00034867
0.000371574
0.000357014
0.000343923
0.000333171
0.000317674
0.00029672
0.000271408
0.000242934
0.000213674
0.000187139
0.000165567
0.00014916
0.00013697
0.000127927
0.000121275
0.000116606
0.000113704
0.000112394
0.000112454
0.000113483
0.000115339
0.000117933
0.000121228
0.000125222
0.000129958
0.000135543
0.000142115
0.000149568
0.000157967
0.000167364
0.000177821
0.000189321
0.000204445
0.000208751
0.000203819
0.000190647
0.000176347
0.000484461
0.000564048
0.00035596
)
;
    }
    sWall
    {
        type            compressible::alphatWallFunction;
        Prt             0.85;
        value           uniform 0.000316451;
    }
    nWall
    {
        type            compressible::alphatWallFunction;
        Prt             0.85;
        value           nonuniform List<scalar> 6(0.000141476 0.000148311 0.000170394 0.000194077 0.000196395 0.000176);
    }
    sideWalls
    {
        type            empty;
    }
    glass1
    {
        type            compressible::alphatWallFunction;
        Prt             0.85;
        value           nonuniform List<scalar> 9(0.000182548 0.00024552 0.000296129 0.000343434 0.000390691 0.000439926 0.000483113 0.000490327 0.000477176);
    }
    glass2
    {
        type            compressible::alphatWallFunction;
        Prt             0.85;
        value           nonuniform List<scalar> 2(0.000256436 0.000236983);
    }
    sun
    {
        type            compressible::alphatWallFunction;
        Prt             0.85;
        value           nonuniform List<scalar> 
14
(
0.000187306
0.000204617
0.000208454
0.000218297
0.000227482
0.000236159
0.000244791
0.000252643
0.000257874
0.000259611
0.000257096
0.000249841
0.00023764
0.0002211
)
;
    }
    heatsource1
    {
        type            compressible::alphatWallFunction;
        Prt             0.85;
        value           nonuniform List<scalar> 3(0.000105835 0.000126745 0.00014185);
    }
    heatsource2
    {
        type            compressible::alphatWallFunction;
        Prt             0.85;
        value           nonuniform List<scalar> 4(0.000207712 0.000122685 0.000122683 0.000213027);
    }
    Table_master
    {
        type            compressible::alphatWallFunction;
        Prt             0.85;
        value           nonuniform List<scalar> 9(0.000142394 0.000125693 0.000112068 0.000100933 9.17632e-05 8.41407e-05 7.77626e-05 7.24393e-05 6.81069e-05);
    }
    Table_slave
    {
        type            compressible::alphatWallFunction;
        Prt             0.85;
        value           nonuniform List<scalar> 9(0.000159799 0.000145722 0.000135548 0.000127664 0.000120823 0.000114545 0.000108456 0.000102031 9.45423e-05);
    }
    inlet
    {
        type            fixedValue;
        value           uniform 1.94e-05;
    }
    outlet
    {
        type            zeroGradient;
    }
}


// ************************************************************************* //
