/*--------------------------------*- C++ -*----------------------------------*\
  =========                 |
  \\      /  F ield         | OpenFOAM: The Open Source CFD Toolbox
   \\    /   O peration     | Website:  https://openfoam.org
    \\  /    A nd           | Version:  6
     \\/     M anipulation  |
\*---------------------------------------------------------------------------*/
FoamFile
{
    version     2.0;
    format      ascii;
    class       volScalarField;
    location    "2100";
    object      nut;
}
// * * * * * * * * * * * * * * * * * * * * * * * * * * * * * * * * * * * * * //

dimensions      [0 2 -1 0 0 0 0];

internalField   nonuniform List<scalar> 
459
(
0.00113974
0.00124832
0.0012728
0.00133576
0.00139483
0.00145092
0.00150697
0.00155807
0.00159215
0.00160336
0.00158668
0.00153901
0.00145926
0.00135176
0.0012295
0.000515752
0.00062259
0.000700874
0.000700263
0.000677629
0.000646727
0.000606755
0.000566852
0.0005306
0.000498415
0.000469916
0.000444605
0.000422105
0.000401919
0.000383338
0.000365465
0.000347052
0.000335606
0.000307481
0.00155017
0.00388201
0.00375482
0.00438345
0.00500412
0.00561503
0.00613121
0.00653952
0.00689949
0.0071824
0.00735223
0.00737221
0.00718671
0.00665233
0.00518035
0.00126343
0.000743479
0.000546874
0.00115268
0.00161065
0.00194758
0.00213026
0.00212367
0.0016899
0.0014537
0.00128642
0.00115869
0.00105741
0.000975015
0.000903927
0.000837481
0.000772706
0.000714979
0.000663999
0.000791873
0.000407626
0.00188895
0.005307
0.00468764
0.00585912
0.00645581
0.00690244
0.00724992
0.00754725
0.00786089
0.00817586
0.0084521
0.00864383
0.00869809
0.00852187
0.00785369
0.00594036
0.00129937
0.00105504
0.00154731
0.00201002
0.00243526
0.00272809
0.00265492
0.000861135
0.000759704
0.000678095
0.000612247
0.000558636
0.00051453
0.000477969
0.000447713
0.000423283
0.000457841
0.000531132
0.000900645
0.000476127
0.00221161
0.00674797
0.00474132
0.00620404
0.00671522
0.00691012
0.00705804
0.00724593
0.00751943
0.00786096
0.00821768
0.00853325
0.00874633
0.00877771
0.00857094
0.00781965
0.00529843
0.0015317
0.00190891
0.00248497
0.00305871
0.00352058
0.00380092
0.00355204
0.000968997
0.000882204
0.000820094
0.000772336
0.000731161
0.000693582
0.000657325
0.000619277
0.000575256
0.000539431
0.000557458
0.00105721
0.000526962
0.00253896
0.0085775
0.00524894
0.0060331
0.00667024
0.00673746
0.00672574
0.00686855
0.00711918
0.00748177
0.00788613
0.00825598
0.00850067
0.00856699
0.00844988
0.00811505
0.00736584
0.00612422
0.00569947
0.00557215
0.00553696
0.00550854
0.0054379
0.00520414
0.00436051
0.0039573
0.0037209
0.00353601
0.00334178
0.00306196
0.00269594
0.00226238
0.0017895
0.00132274
0.000978689
0.00103539
0.000693581
0.000640668
0.000765653
0.000857904
0.00288461
0.0105626
0.00718392
0.00616562
0.00663071
0.00673492
0.00669797
0.00678704
0.00698292
0.00731775
0.00774902
0.00816129
0.00842556
0.00846465
0.00829231
0.00799805
0.00767765
0.00738074
0.00721612
0.00707119
0.00688501
0.00666369
0.00641536
0.00611868
0.00571368
0.00536423
0.00506375
0.00478339
0.00450382
0.00419809
0.00381176
0.00333035
0.00275756
0.00213411
0.00159415
0.00119011
0.000932347
0.000820722
0.00118616
0.000900624
0.00319142
0.0119107
0.00988738
0.00793462
0.00760298
0.00731881
0.00702655
0.00691233
0.00703985
0.00739797
0.00788892
0.00834853
0.00861297
0.0085945
0.00833112
0.00798942
0.00777835
0.00775789
0.00776535
0.00763408
0.00735337
0.0069829
0.00656628
0.0061277
0.00569152
0.0053092
0.00497606
0.00467688
0.00440697
0.00416974
0.0039613
0.00363086
0.00316922
0.00261831
0.00210524
0.00164815
0.00134907
0.00129434
0.00135647
0.00104294
0.00324424
0.0103892
0.00938807
0.0086741
0.0079898
0.00731128
0.00689842
0.00685614
0.00716872
0.00773088
0.00836366
0.00885488
0.00903953
0.0088697
0.00845294
0.00804948
0.0079035
0.00794663
0.0078369
0.00748851
0.0069808
0.00639764
0.00580873
0.00527409
0.004831
0.00448047
0.00419847
0.00396958
0.00379207
0.00367158
0.00361352
0.00357501
0.00330414
0.00294211
0.00264077
0.00252404
0.0027155
0.00329899
0.00411665
0.00160382
0.00315256
0.00371642
0.00409181
0.00418481
0.00440299
0.00488631
0.00564835
0.00663388
0.00771187
0.00870284
0.00941673
0.00969694
0.00950763
0.00897094
0.00837584
0.00802441
0.00780384
0.00753834
0.00708773
0.00646244
0.00575595
0.00507023
0.00448377
0.00402807
0.00368915
0.00343233
0.00322715
0.00305561
0.00290688
0.00277251
0.00264548
0.00252978
0.00243886
0.00238073
0.00237436
0.00240539
0.00239988
0.00229364
0.00212726
0.00147502
0.00144164
0.0036803
0.00669324
0.0086675
0.00997675
0.010783
0.0111252
0.0110724
0.0107028
0.0101056
0.00924587
0.00838018
0.00772928
0.00727254
0.00680173
0.00621607
0.0055387
0.0048405
0.0041931
0.00366432
0.00327316
0.00299481
0.00279431
0.00264424
0.00252815
0.00243792
0.00237058
0.00232683
0.00231119
0.00232095
0.0023448
0.00237951
0.00241333
0.00241371
0.00233224
0.00215299
0.00188976
0.00118717
0.00219095
0.00680712
0.00938548
0.0100713
0.0102859
0.0101437
0.00967412
0.00899941
0.00823592
0.00749209
0.00678827
0.0061991
0.0057092
0.00521444
0.0046754
0.00413101
0.00362677
0.00319438
0.00284769
0.00258004
0.00238779
0.00225417
0.00216542
0.0021131
0.00209195
0.00209723
0.00212288
0.00216412
0.00222816
0.00230995
0.00240543
0.00250679
0.00259697
0.00266048
0.00264757
0.00264419
0.00238703
0.00120212
0.00196271
0.00208177
0.00216763
0.00233795
0.00224576
0.00215999
0.00208924
0.00198659
0.00184796
0.00168158
0.00149633
0.00130866
0.00114128
0.0010074
0.000906915
0.000832898
0.000778169
0.000737822
0.000709298
0.000691328
0.000682916
0.000682735
0.00068844
0.00069918
0.000714449
0.000734038
0.000757979
0.000786578
0.000820554
0.00086081
0.000906782
0.000958952
0.00101773
0.00108359
0.00115651
0.00125314
0.00128049
0.00124842
0.00116403
0.00107327
)
;

boundaryField
{
    floor
    {
        type            nutkWallFunction;
        Cmu             0.09;
        kappa           0.41;
        E               9.8;
        value           nonuniform List<scalar> 
29
(
0.000147388
6.17269e-05
7.51668e-05
8.48349e-05
8.47599e-05
8.19783e-05
7.81625e-05
7.31938e-05
6.81938e-05
6.36139e-05
5.95152e-05
5.58586e-05
5.25877e-05
4.96603e-05
4.70171e-05
4.45691e-05
4.22e-05
3.97437e-05
3.82082e-05
3.44054e-05
3.44054e-05
4.77655e-05
5.66571e-05
6.31513e-05
0.000147388
6.17269e-05
6.56742e-05
0.000127172
0.000181676
)
;
    }
    ceiling
    {
        type            nutkWallFunction;
        Cmu             0.09;
        kappa           0.41;
        E               9.8;
        value           nonuniform List<scalar> 
43
(
0.000229142
0.000242076
0.000251357
0.000269796
0.000259955
0.000250731
0.000243086
0.000231935
0.00021677
0.0001984
0.00017771
0.000156457
0.000137213
0.00012159
0.000109707
0.000100857
9.42545e-05
8.9352e-05
8.58668e-05
8.36626e-05
8.26285e-05
8.26062e-05
8.33078e-05
8.46265e-05
8.64974e-05
8.88905e-05
9.18051e-05
9.52726e-05
9.93727e-05
0.000104205
0.000109692
0.000115879
0.000122803
0.000130509
0.000138977
0.000150109
0.000153242
0.000149568
0.000139848
0.000129306
0.000355965
0.000414052
0.000253663
)
;
    }
    sWall
    {
        type            nutkWallFunction;
        Cmu             0.09;
        kappa           0.41;
        E               9.8;
        value           uniform 0.000229207;
    }
    nWall
    {
        type            nutkWallFunction;
        Cmu             0.09;
        kappa           0.41;
        E               9.8;
        value           nonuniform List<scalar> 6(0.000103859 0.000108961 0.000125764 0.000142533 0.000144256 0.000129314);
    }
    sideWalls
    {
        type            empty;
    }
    glass1
    {
        type            nutkWallFunction;
        Cmu             0.09;
        kappa           0.41;
        E               9.8;
        value           nonuniform List<scalar> 9(0.000137163 0.000184004 0.000221612 0.000256751 0.000291844 0.000328385 0.000360441 0.000365938 0.000356429);
    }
    glass2
    {
        type            nutkWallFunction;
        Cmu             0.09;
        kappa           0.41;
        E               9.8;
        value           nonuniform List<scalar> 2(0.000189847 0.000175399);
    }
    sun
    {
        type            nutkWallFunction;
        Cmu             0.09;
        kappa           0.41;
        E               9.8;
        value           nonuniform List<scalar> 
14
(
0.000137035
0.00014955
0.000152354
0.000159542
0.000166251
0.000172592
0.000178901
0.000184631
0.00018844
0.000189691
0.000187829
0.000182494
0.00017353
0.000161361
)
;
    }
    heatsource1
    {
        type            nutkWallFunction;
        Cmu             0.09;
        kappa           0.41;
        E               9.8;
        value           nonuniform List<scalar> 3(7.74133e-05 9.27371e-05 0.000103856);
    }
    heatsource2
    {
        type            nutkWallFunction;
        Cmu             0.09;
        kappa           0.41;
        E               9.8;
        value           nonuniform List<scalar> 4(0.000151274 9.00423e-05 9.00423e-05 0.000155385);
    }
    Table_master
    {
        type            nutkWallFunction;
        Cmu             0.09;
        kappa           0.41;
        E               9.8;
        value           nonuniform List<scalar> 9(0.000104242 9.20151e-05 8.20375e-05 7.38822e-05 6.7164e-05 6.15778e-05 5.69025e-05 5.29996e-05 4.98242e-05);
    }
    Table_slave
    {
        type            nutkWallFunction;
        Cmu             0.09;
        kappa           0.41;
        E               9.8;
        value           nonuniform List<scalar> 9(0.000117062 0.00010676 9.93165e-05 9.35478e-05 8.85404e-05 8.39411e-05 7.94753e-05 7.47569e-05 6.92537e-05);
    }
    inlet
    {
        type            calculated;
        value           uniform 0.000100623;
    }
    outlet
    {
        type            calculated;
        value           nonuniform List<scalar> 2(0.00196271 0.00208177);
    }
}


// ************************************************************************* //
