/*--------------------------------*- C++ -*----------------------------------*\
  =========                 |
  \\      /  F ield         | OpenFOAM: The Open Source CFD Toolbox
   \\    /   O peration     | Website:  https://openfoam.org
    \\  /    A nd           | Version:  6
     \\/     M anipulation  |
\*---------------------------------------------------------------------------*/
FoamFile
{
    version     2.0;
    format      ascii;
    class       volScalarField;
    location    "1200";
    object      epsilon;
}
// * * * * * * * * * * * * * * * * * * * * * * * * * * * * * * * * * * * * * //

dimensions      [0 2 -3 0 0 0 0];

internalField   nonuniform List<scalar> 
459
(
0.00050886
0.000667261
0.000704897
0.000813767
0.000925173
0.00103916
0.00116077
0.00128403
0.00137368
0.00140932
0.00137488
0.00126621
0.00109458
0.000890639
0.000697123
4.67727e-05
8.39433e-05
0.000117703
0.000114347
0.000102331
8.82595e-05
7.28833e-05
5.96145e-05
4.90713e-05
4.08151e-05
3.43178e-05
2.91504e-05
2.50185e-05
2.16505e-05
1.88218e-05
1.63359e-05
1.40039e-05
1.27058e-05
9.80847e-06
0.00129256
0.00183708
0.000632857
0.000614409
0.000648021
0.000700876
0.000776119
0.000870732
0.000956829
0.00100824
0.00100507
0.000941815
0.000826489
0.000685498
0.000586337
0.00075097
0.000137101
5.84037e-05
0.000138587
0.000144012
0.000129326
0.000108898
9.03158e-05
8.04886e-05
6.51666e-05
5.17612e-05
4.11447e-05
3.29428e-05
2.66287e-05
2.17821e-05
1.80589e-05
1.5323e-05
1.36804e-05
1.30273e-05
3.46728e-05
2.3313e-05
0.00235151
0.00446752
0.000799727
0.000595848
0.000629595
0.000714005
0.000834801
0.000979017
0.00110474
0.00117752
0.00117998
0.00111417
0.000991523
0.00083949
0.000705
0.000637696
0.000764101
0.000447095
0.000313718
0.000232917
0.000177499
0.000138312
0.000115247
0.000208685
0.000143981
0.000102946
7.61922e-05
5.81899e-05
4.5701e-05
3.68149e-05
3.03914e-05
2.57763e-05
1.95988e-05
1.65596e-05
6.60216e-05
3.72514e-05
0.00379002
0.00919704
0.00129154
0.000625307
0.000637588
0.000762697
0.000957296
0.00117575
0.00133612
0.0014108
0.00139787
0.00131048
0.00115983
0.000976056
0.000809184
0.000692792
0.00066957
0.00128148
0.000717194
0.000426438
0.000282608
0.000201639
0.000152228
0.00012942
0.00029504
0.000223399
0.000180211
0.000151239
0.000128946
0.000110464
9.44269e-05
7.93453e-05
6.39632e-05
3.77635e-05
2.53547e-05
0.000112626
5.04951e-05
0.00575274
0.0162372
0.00257698
0.000799993
0.000708867
0.000886693
0.00124087
0.00154189
0.00169839
0.00173678
0.00168233
0.00155082
0.00135485
0.00112076
0.000886646
0.000686148
0.000542325
0.000479917
0.000385753
0.000299455
0.000230897
0.000179395
0.000142115
0.000118367
0.000114493
0.000106782
9.90267e-05
9.12291e-05
8.28653e-05
7.40272e-05
6.54136e-05
5.73665e-05
4.99859e-05
3.97661e-05
3.08409e-05
7.91765e-05
5.67681e-05
9.22097e-05
0.000157267
0.000220371
0.00845546
0.0239177
0.00575525
0.00165941
0.00120987
0.00146886
0.00201296
0.00223269
0.00226922
0.00220901
0.00208241
0.00188562
0.00161918
0.00130651
0.000990928
0.000718057
0.000518763
0.000397126
0.000318178
0.00025549
0.000202586
0.000161018
0.00013109
0.000112402
0.000104329
0.00010138
9.95928e-05
9.68171e-05
9.17472e-05
8.33689e-05
7.23702e-05
6.1362e-05
5.14853e-05
4.27452e-05
3.76388e-05
5.64905e-05
5.81998e-05
7.06179e-05
0.000293644
0.000253537
0.0114718
0.028426
0.0115946
0.00528239
0.0038919
0.00386784
0.00369027
0.00342268
0.00315002
0.00289881
0.00264226
0.00233526
0.0019576
0.00153239
0.0011137
0.000761411
0.000513634
0.00036499
0.000278397
0.000219107
0.000173594
0.000140605
0.000119584
0.00010919
0.000107382
0.000110365
0.000114663
0.000118481
0.000120379
0.000118217
0.000107562
9.41509e-05
8.11958e-05
7.02545e-05
6.64526e-05
7.78643e-05
0.000101658
0.00017221
0.000408083
0.00038203
0.0120567
0.0298595
0.0171444
0.0122551
0.00961278
0.0075102
0.00597848
0.00494931
0.00427757
0.00380556
0.00338594
0.00291163
0.00235369
0.00175618
0.00119519
0.000749195
0.000463229
0.000304997
0.000222499
0.000174092
0.000141633
0.00012151
0.000111664
0.000110053
0.000114635
0.000123337
0.000134778
0.000148646
0.000165006
0.00018355
0.000202623
0.000210202
0.000219799
0.000242297
0.00029029
0.000449988
0.000876001
0.00178097
0.00530103
0.00142439
0.0110595
0.0181419
0.0145854
0.0111514
0.00874346
0.00722123
0.00630129
0.00575106
0.00536163
0.00494356
0.00436187
0.00357305
0.00267101
0.00180188
0.00106807
0.0005624
0.000332899
0.000224233
0.000167808
0.000135307
0.000116257
0.000106886
0.000104882
0.000108483
0.000116476
0.000128246
0.000143941
0.000164537
0.000191764
0.000228148
0.000277154
0.000343917
0.000436385
0.000579493
0.000790434
0.00107541
0.00139603
0.00166331
0.00185604
0.00111412
0.00377552
0.00661905
0.00840597
0.00886422
0.00884824
0.00839784
0.00745511
0.0061228
0.00459407
0.00302065
0.00182358
0.00106533
0.00060551
0.000353568
0.000233037
0.000173031
0.000140359
0.00012095
0.000109695
0.000104504
0.000103902
0.000106862
0.000112874
0.000121894
0.000134351
0.000151229
0.000174249
0.000206206
0.000251531
0.000316162
0.000407074
0.000533379
0.000697538
0.000879723
0.0010238
0.00105769
0.000929703
0.000584207
0.0036801
0.00834745
0.00842399
0.00702586
0.00614378
0.00520328
0.00414028
0.00307891
0.00212734
0.00135491
0.000824401
0.00050681
0.000330464
0.000238428
0.000191557
0.000165485
0.000148719
0.000136624
0.00012758
0.000121467
0.000118328
0.000118098
0.000120925
0.000127235
0.000137739
0.000153498
0.000176064
0.000207722
0.000251752
0.000312682
0.00039661
0.000509616
0.000652087
0.000814196
0.000935378
0.00104338
0.00079952
0.000605961
0.00265181
0.00316464
0.0035721
0.00449159
0.00401631
0.00358835
0.00326752
0.00283068
0.00229756
0.00174664
0.00124097
0.000832102
0.000545188
0.000365738
0.000259179
0.0001958
0.000157185
0.000133305
0.000118882
0.000111092
0.000108356
0.000109155
0.000112626
0.000118535
0.0001269
0.000137942
0.000152087
0.000170031
0.000192936
0.000222602
0.000259879
0.000306852
0.000366085
0.00044097
0.000535198
0.000679033
0.000726022
0.000674677
0.000548066
0.000430957
)
;

boundaryField
{
    floor
    {
        Cmu             0.09;
        kappa           0.41;
        E               9.8;
        type            epsilonWallFunction;
        value           nonuniform List<scalar> 
29
(
0.000697123
4.67727e-05
8.39433e-05
0.000117703
0.000114347
0.000102331
8.82595e-05
7.28833e-05
5.96145e-05
4.90713e-05
4.08151e-05
3.43178e-05
2.91504e-05
2.50185e-05
2.16505e-05
1.88218e-05
1.63359e-05
1.40039e-05
1.27058e-05
9.80847e-06
9.80847e-06
2.3313e-05
3.72514e-05
5.04951e-05
0.000697123
4.67727e-05
5.84037e-05
0.000447095
0.00128148
)
;
    }
    ceiling
    {
        Cmu             0.09;
        kappa           0.41;
        E               9.8;
        type            epsilonWallFunction;
        value           nonuniform List<scalar> 
43
(
0.00265181
0.00316464
0.0035721
0.00449159
0.00401631
0.00358835
0.00326752
0.00283068
0.00229756
0.00174664
0.00124097
0.000832102
0.000545188
0.000365738
0.000259179
0.0001958
0.000157185
0.000133305
0.000118882
0.000111092
0.000108356
0.000109155
0.000112626
0.000118535
0.0001269
0.000137942
0.000152087
0.000170031
0.000192936
0.000222602
0.000259879
0.000306852
0.000366085
0.00044097
0.000535198
0.000679033
0.000726022
0.000674677
0.000548066
0.000430957
0.0110595
0.0181419
0.0036801
)
;
    }
    sWall
    {
        Cmu             0.09;
        kappa           0.41;
        E               9.8;
        type            epsilonWallFunction;
        value           uniform 0.00265181;
    }
    nWall
    {
        Cmu             0.09;
        kappa           0.41;
        E               9.8;
        type            epsilonWallFunction;
        value           nonuniform List<scalar> 6(0.000220371 0.000253537 0.00038203 0.000584207 0.000605961 0.000430957);
    }
    sideWalls
    {
        type            empty;
    }
    glass1
    {
        Cmu             0.09;
        kappa           0.41;
        E               9.8;
        type            epsilonWallFunction;
        value           nonuniform List<scalar> 9(0.00050886 0.00129256 0.00235151 0.00379002 0.00575274 0.00845546 0.0114718 0.0120567 0.0110595);
    }
    glass2
    {
        Cmu             0.09;
        kappa           0.41;
        E               9.8;
        type            epsilonWallFunction;
        value           nonuniform List<scalar> 2(0.00142439 0.00111412);
    }
    sun
    {
        Cmu             0.09;
        kappa           0.41;
        E               9.8;
        type            epsilonWallFunction;
        value           nonuniform List<scalar> 
14
(
0.00050886
0.000667261
0.000704897
0.000813767
0.000925173
0.00103916
0.00116077
0.00128403
0.00137368
0.00140932
0.00137488
0.00126621
0.00109458
0.000890639
)
;
    }
    heatsource1
    {
        Cmu             0.09;
        kappa           0.41;
        E               9.8;
        type            epsilonWallFunction;
        value           nonuniform List<scalar> 3(9.22097e-05 0.000157267 0.000220371);
    }
    heatsource2
    {
        Cmu             0.09;
        kappa           0.41;
        E               9.8;
        type            epsilonWallFunction;
        value           nonuniform List<scalar> 4(0.00075097 0.000137101 0.000137101 0.000764101);
    }
    Table_master
    {
        Cmu             0.09;
        kappa           0.41;
        E               9.8;
        type            epsilonWallFunction;
        value           nonuniform List<scalar> 9(0.000208685 0.000143981 0.000102946 7.61922e-05 5.81899e-05 4.5701e-05 3.68149e-05 3.03914e-05 2.57763e-05);
    }
    Table_slave
    {
        Cmu             0.09;
        kappa           0.41;
        E               9.8;
        type            epsilonWallFunction;
        value           nonuniform List<scalar> 9(0.00029504 0.000223399 0.000180211 0.000151239 0.000128946 0.000110464 9.44269e-05 7.93453e-05 6.39632e-05);
    }
    inlet
    {
        type            turbulentMixingLengthDissipationRateInlet;
        mixingLength    0.01;
        phi             phi;
        k               k;
        value           uniform 0.000101881;
    }
    outlet
    {
        type            zeroGradient;
    }
}


// ************************************************************************* //
