/*--------------------------------*- C++ -*----------------------------------*=========                 |
  \      /  F ield         | OpenFOAM: The Open Source CFD Toolbox
   \    /   O peration     | Website:  https://openfoam.org
    \  /    A nd           | Version:  6
     \/     M anipulation  |
\*---------------------------------------------------------------------------*/
FoamFile
{
    version     2.0;
    format      ascii;
    class       volScalarField;
    location    "1200";
    object      PMV;
}
// * * * * * * * * * * * * * * * * * * * * * * * * * * * * * * * * * * * * * //

dimensions      [0 0 0 0 0 0 0];

internalField   nonuniform List<scalar> 
459
(
1.6786640709094598
1.4647248680703284
1.4391250225430405
1.4164235527809639
1.400387781129801
1.391125643510048
1.3876368698387436
1.390353605056061
1.3984772004706243
1.4136351737746893
1.436239997690598
1.4683846798092102
1.5116662918258792
1.5593882298111204
1.562252938528382
1.6229041909582496
1.610012312302896
1.6052371917914665
1.606669747617423
1.6090573032147122
1.6109673138534226
1.6076569005048604
1.603969674527401
1.6032275284288953
1.6042533944631143
1.605338072334846
1.6068534200628215
1.6093743080263594
1.6123353950390225
1.6172083182914376
1.626213408764934
1.6343624545624473
1.637226842978437
1.648206329178682
1.643104064529517
1.485669355888538
1.477849404373319
1.4572421110762135
1.4449907806298243
1.437226407218349
1.4346412945021347
1.4360965385502311
1.439776193324487
1.4469471558721694
1.4596820514832358
1.4805092236490918
1.5105081771378674
1.548197735971459
1.5512672308529978
1.5512672308529978
1.549834063406189
1.5847937997081152
1.6014169609882087
1.597596611777817
1.5968389291527127
1.590199430316561
1.5858296453291532
1.5846281831261761
1.5848381481786633
1.5859820908870115
1.5863270709839432
1.58652126310944
1.5867924527719226
1.5876808671010239
1.5883029248336429
1.5908268037572721
1.598005957836029
1.615742208002779
1.6209943711721282
1.6117777813891658
1.6869392351475159
1.4888408786461094
1.5134543041076451
1.503470510976508
1.5008624686452314
1.500177987245618
1.501402081955076
1.5025246211761287
1.4985392340213604
1.4918155038430938
1.4875991664111188
1.4904120180441842
1.505166147408442
1.5310843809426389
1.5484008810865433
1.5503117875433696
1.5517449500219451
1.4954294205455052
1.5370866172471893
1.550666146392876
1.5594161375594233
1.5679510388457365
1.5739935929717277
1.5774181154267726
1.584723267747302
1.5892266177703493
1.5914457582251382
1.5923606134086563
1.592284989916447
1.5921088413145976
1.5905740601091134
1.585658362228749
1.5869551559374246
1.6043460671016594
1.5966402214678341
1.5510911962821219
1.763184941202758
1.4952801347115356
1.540634557532484
1.5502185712984178
1.567203254263009
1.5821875522186706
1.5945111186403937
1.5929044764818299
1.570715077281403
1.5366440790525382
1.5046952331623022
1.485917254228627
1.4839462441863311
1.4997709772638692
1.5287161678844572
1.5507895100262052
1.541703749761867
1.5014292206607702
1.4958201502640005
1.5228362606926233
1.5481772109133727
1.567663909017298
1.5841909320652159
1.595763807364383
1.5988023571097496
1.5968376060649165
1.5953298225332957
1.5952897185664165
1.5959428144088166
1.5981019515559343
1.6041501072624453
1.6150993211253426
1.637115126218676
1.6310792961562295
1.6170740124470426
1.5756463684975601
1.5075502917425525
1.8530444235346535
1.5158337679176637
1.5676775534684733
1.5949267867115924
1.6404649033258694
1.691606833509387
1.7207380637869787
1.6863553228064476
1.6187936691158507
1.5498109274707461
1.4973505164036522
1.4656321531827539
1.4565803847303098
1.4680558409868574
1.4934810135470535
1.5203552984943616
1.5306945587259833
1.5283144267122288
1.5359111246092632
1.5597949100295638
1.5882317647496693
1.6135068986975605
1.6343668758112975
1.647728982498375
1.6553662832042741
1.656851031303627
1.6560675438981505
1.6548967861299362
1.6526924266001335
1.6504532797611526
1.6497096904425144
1.6506598441910507
1.6525635748426335
1.6398072493644864
1.6146747866772224
1.5574679804138292
1.551679217161438
1.6777977540544253
1.6630668773945454
1.5024469941730851
1.9423396045257688
1.5590816996778367
1.620051923410491
1.6472327886216485
1.713945894219849
1.740770412854608
1.74623487744531
1.6695487328638676
1.5937831763426107
1.5225788902966797
1.4664983725584897
1.4340058623728325
1.4276625078336012
1.444667240349255
1.477385059799214
1.5162437729754614
1.5482051439467934
1.5714326882813283
1.5955294347851399
1.625291422101148
1.6410459156913222
1.6548889673675506
1.6653894338588136
1.6735027304395955
1.680183802425854
1.684955735344101
1.688773123232435
1.6911589186089813
1.691636071003127
1.6902046071330823
1.6868644469731437
1.6820926018815348
1.6730039220888406
1.6485094059472083
1.615737886127594
1.5557916908006262
1.5539597020961449
1.568835281324319
1.5671722212603485
1.578911733499693
2.0312860867205074
1.6541843336851751
1.7701445815181351
1.7426041964205974
1.7382116953246365
1.71882333216562
1.6716570773840618
1.604065854587014
1.527550471959558
1.4576976766862393
1.4093916404287332
1.390076001916778
1.4005505106560852
1.4350921169931028
1.4867254833617578
1.5454324521328295
1.5932985785872675
1.616697164004107
1.6377042340739647
1.6558435969684782
1.6706392844616167
1.6825697962775708
1.691636071003127
1.698315969169506
1.7030870538601972
1.7064266773608971
1.7083349831035617
1.7092891221330533
1.7083349831035617
1.7054725106829711
1.7002244303167229
1.693544658237304
1.68543291655979
1.6738278698620022
1.6346379952302295
1.5788442518990404
1.5572069448938923
1.5469151354151083
1.5210701477147195
1.6051573141056277
2.1631976515940177
1.970250944112091
1.9255936124639197
1.8261577840895455
1.771534437088713
1.6970555858283112
1.5997100787797236
1.4961569989177745
1.4072123981525646
1.347526254642415
1.3255356847575566
1.3421232184519445
1.3890116518789957
1.458030463678775
1.5407837250255914
1.5932985785872675
1.625768862498216
1.652502357167302
1.673025494809205
1.688295957491018
1.6997473184311644
1.7083349831035617
1.7145367209492517
1.718830000665081
1.7216920811583711
1.7231230894278633
1.7236000874320043
1.7231230894278633
1.7212150736570118
1.717875954950567
1.7131055855587756
1.7054725106829711
1.6978388482212383
1.688773123232435
1.6787521799284377
1.668730277674466
1.6480553582335526
1.6363161835427107
1.5762545004191935
1.4942266987222081
2.359435683506229
2.226994374291709
2.0596982557296717
1.8816817174622444
1.69491641646349
1.4889456285390112
1.3187286433213616
1.2072088941674466
1.1617961792190035
1.1770953131026167
1.2400046230195396
1.3355000169794937
1.449430627449173
1.5441012453669012
1.5952088338229
1.6410459156913222
1.6706392844616167
1.6906817639849285
1.7054725106829711
1.715967835303965
1.72407708305618
1.7257554228907575
1.7243371618129448
1.7218815078168794
1.7193312690104854
1.7152588623136493
1.710228229179559
1.7040229051602565
1.6963863414007547
1.6867962567989456
1.6758233785699592
1.6642427074286956
1.653162418065852
1.6394853492842631
1.6239510255554246
1.6102665136312635
1.6012545223036014
1.596077413555215
1.5855069865740934
1.5551509495815015
-2.9762961020177183
-1.773788137947987
-1.1095523272380146
-0.3877049229959176
0.15821604550223103
0.5847756835282462
0.9305363055556569
1.2064995063223996
1.369629202665144
1.493451487570138
1.5741944459880348
1.6272011719911559
1.6584389078064146
1.6731441667669882
1.6848720340761874
1.6923608915418031
1.697550356379271
1.6996420365514573
1.6996538558983658
1.698354403288186
1.6961365594985764
1.6928205953607587
1.6887065886402353
1.6841536701013542
1.6786819272751843
1.673405838036669
1.6681094108969265
1.6631449837528942
1.6594053024771505
1.6568232283881121
1.6552169337899796
1.6547792270971362
1.654553382219094
1.656210760854224
1.666796749881997
1.7015722107045124
1.7713734425588488
1.6160604651230173
-2.460862393268794
-0.9973839353261984
0.034914732765063364
0.559863293581334
0.8949252852202424
1.0977335745416257
1.2523622700123775
1.3716278143734824
1.4644278065501597
1.533522160309611
1.5819018582440492
1.6153610570485362
1.6386779954780801
1.6552336934930563
1.6663057619670572
1.6734572609924963
1.6776812128762826
1.6801328984165258
1.682100160078107
1.682840043398762
1.6827256855090336
1.681743107228148
1.6803949682437394
1.6787232768776548
1.6773167655324277
1.6753628889889594
1.673622493069805
1.6730614190565647
1.673786359201889
1.6771861033807745
1.6846064256716606
1.696014452230644
1.7081260577550677
1.7189227092026635
1.7304006719313763
1.7682360884763786
1.7032768062828856
1.6543552441709943
-0.8759841296024127
-1.0167274635298387
-0.8951893297947422
0.35166833769012623
0.868836654452068
1.0884326953080585
1.224149794560692
1.3292291366835758
1.4134712620987793
1.4826240588601067
1.5382665824664719
1.5810244523797856
1.6124082953864867
1.6333160293119695
1.6471516699771456
1.6546746640302081
1.658058032461869
1.6591998896580813
1.659353512342289
1.6590158858017316
1.658916438559256
1.6588198631244355
1.6590309097878857
1.6595011372358994
1.6602069697052915
1.6611786971866394
1.6625355818380438
1.6645227484510834
1.6675359155356304
1.6721091825535093
1.678905359625752
1.6906740013289112
1.7117223328277855
1.749848122604534
1.7789151050566876
1.7851120462072405
1.7523030343843353
1.7106712450299968
1.668512308148997
1.6727862315470452
)
;

boundaryField
{
    ".*"
    {
        type            zeroGradient;
    }
}


// ************************************************************************* //
