/*--------------------------------*- C++ -*----------------------------------*\
  =========                 |
  \\      /  F ield         | OpenFOAM: The Open Source CFD Toolbox
   \\    /   O peration     | Website:  https://openfoam.org
    \\  /    A nd           | Version:  6
     \\/     M anipulation  |
\*---------------------------------------------------------------------------*/
FoamFile
{
    version     2.0;
    format      ascii;
    class       volScalarField;
    location    "1800";
    object      alphat;
}
// * * * * * * * * * * * * * * * * * * * * * * * * * * * * * * * * * * * * * //

dimensions      [1 -1 -1 0 0 0 0];

internalField   nonuniform List<scalar> 
459
(
0.00132868
0.00145685
0.00148574
0.0015594
0.00162855
0.00169428
0.00176009
0.00181971
0.00185929
0.00187196
0.00185185
0.00179528
0.00170074
0.00157297
0.00142746
0.000602213
0.000726297
0.000818566
0.000819425
0.000793713
0.000758025
0.000711234
0.000664367
0.000621778
0.000583986
0.000550544
0.000520864
0.000494491
0.000470844
0.000449086
0.000428164
0.000406616
0.000393049
0.000360118
0.00180519
0.00453042
0.00438066
0.0051129
0.0058371
0.00654917
0.00714839
0.00762542
0.00804656
0.00837807
0.00857832
0.00860517
0.00839567
0.00778763
0.00611004
0.00146715
0.000876776
0.00063692
0.00135108
0.0018937
0.00229442
0.00251225
0.00250289
0.00198334
0.00170242
0.00150371
0.00135211
0.00123209
0.00113465
0.00105098
0.000973161
0.000897625
0.000830468
0.000771502
0.000920408
0.000475791
0.00219759
0.00619154
0.00546763
0.00682279
0.00751321
0.00803074
0.00843396
0.0087833
0.00915347
0.00952606
0.00985391
0.0100837
0.0101543
0.0099542
0.00917863
0.00693286
0.00151505
0.00122387
0.00180602
0.0023572
0.00286607
0.00321636
0.00312766
0.00100889
0.000889655
0.000793766
0.000716445
0.000653533
0.000601805
0.000558945
0.000523491
0.000494883
0.000534692
0.000619115
0.0010473
0.00055525
0.00257057
0.00786667
0.00553014
0.00721771
0.00780083
0.00802381
0.00819707
0.00842248
0.00874885
0.00915487
0.00957828
0.00995291
0.010208
0.0102479
0.0100099
0.00912534
0.00613264
0.00178369
0.00222537
0.00290578
0.00358939
0.0041417
0.00447487
0.00417594
0.00113541
0.00103331
0.000960367
0.000904377
0.000856163
0.000812119
0.000769636
0.000725031
0.00067339
0.000630765
0.000650552
0.00123061
0.000614334
0.00294846
0.00999139
0.00611911
0.0070212
0.00774281
0.00781475
0.0078057
0.00798148
0.0082828
0.00871458
0.00919388
0.00963056
0.00991883
0.00999878
0.00986735
0.00948292
0.00860953
0.0071707
0.0066861
0.00654914
0.00651575
0.00648309
0.00639345
0.00610686
0.00510597
0.00462786
0.00434897
0.00413267
0.00390627
0.00358033
0.00315295
0.00264598
0.0020927
0.00154675
0.00114351
0.00120652
0.000807599
0.00074671
0.000892076
0.000999532
0.00334729
0.0122951
0.00836802
0.00718008
0.00770819
0.00781018
0.00777915
0.00788928
0.00812636
0.00852702
0.00903837
0.00952353
0.00983205
0.00987744
0.00968186
0.00935399
0.00900314
0.00867969
0.00850287
0.00833795
0.00811443
0.00784249
0.00753625
0.00717536
0.00669281
0.00628174
0.00593173
0.00560592
0.00527977
0.00492143
0.00446726
0.00390153
0.00322918
0.0024983
0.00186492
0.00138988
0.00108645
0.000956149
0.00138123
0.00104924
0.0037008
0.0138534
0.0115066
0.00923491
0.00884826
0.00850327
0.00816307
0.00803775
0.00819809
0.00862756
0.00920848
0.009747
0.0100529
0.0100289
0.00972881
0.00935502
0.00914893
0.00915919
0.00917721
0.00901395
0.00866815
0.00821794
0.00771973
0.00720264
0.00669188
0.0062448
0.00585401
0.00550075
0.00517974
0.00489591
0.00464547
0.00425635
0.00371297
0.00306521
0.00246131
0.00192264
0.00156847
0.00150044
0.00157272
0.00121398
0.00375892
0.0120612
0.0109055
0.0100683
0.00926927
0.00848418
0.00801569
0.00798211
0.00836192
0.00902915
0.00977223
0.0103426
0.0105511
0.01035
0.00987839
0.00944835
0.00933102
0.00940537
0.00926528
0.00884176
0.00823614
0.0075485
0.00685793
0.00622988
0.0057054
0.00528626
0.00494554
0.00466634
0.00444795
0.00429821
0.00422457
0.00418035
0.00386221
0.00343551
0.00307743
0.0029307
0.00314158
0.00381596
0.00477503
0.00186457
0.00364858
0.00430516
0.004743
0.0048568
0.00512063
0.00569753
0.00660069
0.00776272
0.00902761
0.0101837
0.0110084
0.0113208
0.0110886
0.0104667
0.00981782
0.00945528
0.00922576
0.00891754
0.00838263
0.00764624
0.0068184
0.00601306
0.0053182
0.00477114
0.00435851
0.0040423
0.00378822
0.00357599
0.00339336
0.00323038
0.00307839
0.00294091
0.00283373
0.00276362
0.00275302
0.00278622
0.00277874
0.0026568
0.00246579
0.00171378
0.00172984
0.00440159
0.00795769
0.0102507
0.01175
0.0126572
0.0130239
0.012936
0.0124892
0.0117832
0.0107825
0.00979943
0.00908288
0.00857738
0.00803575
0.00735206
0.00656007
0.00574365
0.00498217
0.00435093
0.00387687
0.0035348
0.00328584
0.00309859
0.00295387
0.00284191
0.00275878
0.00270473
0.00268444
0.00269451
0.00272101
0.00275972
0.00279718
0.00279647
0.00270242
0.00249688
0.00219391
0.0013803
0.0026224
0.00810463
0.0110696
0.0118264
0.0120407
0.0118456
0.0112775
0.0104815
0.00959402
0.00873762
0.00793278
0.00726552
0.00670899
0.00613822
0.00551313
0.00488016
0.00429071
0.00378122
0.00336851
0.00304574
0.00281132
0.00264666
0.00253581
0.00246886
0.00243951
0.00244204
0.00246918
0.00251505
0.00258786
0.00268152
0.00279116
0.00290746
0.00301061
0.00308342
0.00306841
0.00306678
0.00276716
0.00139755
0.00231879
0.0024601
0.00256171
0.00274117
0.00262348
0.00251934
0.00243418
0.00231254
0.00214969
0.00195519
0.00173947
0.00152208
0.00132942
0.00117593
0.00106076
0.00097563
0.000912236
0.000864999
0.000831102
0.000809252
0.000798437
0.00079743
0.000803391
0.000815328
0.000832639
0.000855065
0.000882631
0.00091568
0.000955032
0.00100173
0.00105511
0.00111571
0.00118398
0.00126047
0.00134509
0.00145767
0.00148898
0.00145159
0.00135382
0.00124839
)
;

boundaryField
{
    floor
    {
        type            compressible::alphatWallFunction;
        Prt             0.85;
        value           nonuniform List<scalar> 
29
(
0.000201162
8.46717e-05
0.000103019
0.000116415
0.00011654
0.000112826
0.000107648
0.000100814
9.39144e-05
8.75932e-05
8.19394e-05
7.68988e-05
7.23932e-05
6.83629e-05
6.47261e-05
6.13596e-05
5.81028e-05
5.47271e-05
5.25903e-05
4.73634e-05
4.73627e-05
6.54896e-05
7.76114e-05
8.64846e-05
0.00020116
8.46707e-05
8.9846e-05
0.000173403
0.000248715
)
;
    }
    ceiling
    {
        type            compressible::alphatWallFunction;
        Prt             0.85;
        value           nonuniform List<scalar> 
43
(
0.000318123
0.000336179
0.000349098
0.000371938
0.000357139
0.000343957
0.000333128
0.000317581
0.000296622
0.000271359
0.000243013
0.000214051
0.000187995
0.000166931
0.00015092
0.000138955
0.000129967
0.000123221
0.000118354
0.000115204
0.000113641
0.000113495
0.000114357
0.000116081
0.000118575
0.000121797
0.000125744
0.000130457
0.000136043
0.000142638
0.000150131
0.000158585
0.000168047
0.000178574
0.000190135
0.000205391
0.000209611
0.000204573
0.000191325
0.000176921
0.000484737
0.00056433
0.000356544
)
;
    }
    sWall
    {
        type            compressible::alphatWallFunction;
        Prt             0.85;
        value           uniform 0.000316851;
    }
    nWall
    {
        type            compressible::alphatWallFunction;
        Prt             0.85;
        value           nonuniform List<scalar> 6(0.000141978 0.000148952 0.000171816 0.000194576 0.000196913 0.000176574);
    }
    sideWalls
    {
        type            empty;
    }
    glass1
    {
        type            compressible::alphatWallFunction;
        Prt             0.85;
        value           nonuniform List<scalar> 9(0.000183 0.000245916 0.000296494 0.000343768 0.000390997 0.000440211 0.000483381 0.000490585 0.000477436);
    }
    glass2
    {
        type            compressible::alphatWallFunction;
        Prt             0.85;
        value           nonuniform List<scalar> 2(0.000257393 0.000237687);
    }
    sun
    {
        type            compressible::alphatWallFunction;
        Prt             0.85;
        value           nonuniform List<scalar> 
14
(
0.000187774
0.000205135
0.000209028
0.000218916
0.000228151
0.00023689
0.000245603
0.000253464
0.000258667
0.000260329
0.000257688
0.000250243
0.000237743
0.000220728
)
;
    }
    heatsource1
    {
        type            compressible::alphatWallFunction;
        Prt             0.85;
        value           nonuniform List<scalar> 3(0.000106154 0.000127119 0.000142354);
    }
    heatsource2
    {
        type            compressible::alphatWallFunction;
        Prt             0.85;
        value           nonuniform List<scalar> 4(0.000206698 0.000124933 0.000124931 0.000213141);
    }
    Table_master
    {
        type            compressible::alphatWallFunction;
        Prt             0.85;
        value           nonuniform List<scalar> 9(0.000143669 0.000126771 0.000112987 0.000101728 9.24586e-05 8.47552e-05 7.83107e-05 7.29333e-05 6.85609e-05);
    }
    Table_slave
    {
        type            compressible::alphatWallFunction;
        Prt             0.85;
        value           nonuniform List<scalar> 9(0.000161349 0.000147102 0.000136825 0.000128874 0.00012198 0.000115643 0.000109491 0.000102988 9.53978e-05);
    }
    inlet
    {
        type            fixedValue;
        value           uniform 1.94e-05;
    }
    outlet
    {
        type            zeroGradient;
    }
}


// ************************************************************************* //
