/*--------------------------------*- C++ -*----------------------------------*=========                 |
  \      /  F ield         | OpenFOAM: The Open Source CFD Toolbox
   \    /   O peration     | Website:  https://openfoam.org
    \  /    A nd           | Version:  6
     \/     M anipulation  |
\*---------------------------------------------------------------------------*/
FoamFile
{
    version     2.0;
    format      ascii;
    class       volScalarField;
    location    "1800";
    object      PPD;
}
// * * * * * * * * * * * * * * * * * * * * * * * * * * * * * * * * * * * * * //

dimensions      [0 0 0 0 0 0 0];

internalField   nonuniform List<scalar> 
459
(
58.90214636206677
47.13234468988775
45.72361943713851
44.49910695789664
43.681991703019634
43.21964814147652
43.0902078873087
43.28515053886523
43.85262731602041
44.773047375419004
46.184976826033804
48.17965951309423
50.797585710947814
52.58708923501934
52.84720925839201
56.38486665115885
55.70912955934261
55.44909153194842
55.55311464042102
55.70912955934261
55.839122413455776
55.78864218649337
55.532428037366984
55.49220127601285
55.53633964331235
55.63750760122276
55.73738234431197
55.86745969984564
56.04742770782164
56.331778787755
56.84120337125931
57.34528517016216
57.552710611062096
58.200277449036705
56.80772235056381
48.261680543662806
47.821924812588705
46.698598980231246
46.0177079826033
45.62769840623755
45.5440140397562
45.66837060850319
45.93506319017427
46.409496882957775
47.23101519373441
48.56691577843736
50.498438658679255
52.11902115425643
52.19701733380413
52.17101787765653
52.11902115425643
54.46018697720881
55.188992708602484
55.00689310943935
55.11095281219653
54.79454924508045
54.56678701946314
54.47849191754137
54.50502507306615
54.56574011457759
54.60830448389769
54.64152135366079
54.67943805296828
54.72596513495612
54.784170309818556
54.92113357717758
55.33930493429849
56.332908361553
56.64459660180767
56.23574897941447
59.08739970293393
48.41296363417745
49.739322621254374
49.22474928771672
49.08863976610445
49.0743826773768
49.16594729543789
49.195050015864574
48.94742950903725
48.58198890212177
48.41945265023017
48.76701005403525
49.813617447956965
51.57861635832309
52.04103169731646
52.17101787765653
52.22301750571933
49.52953360745235
51.71086407374027
52.391593592966714
52.903233747530976
53.45110928626661
53.82070639432229
54.00140893090963
54.452238810405895
54.76965978553653
54.91464202036324
54.9769670058406
55.00784464707083
55.032847518905655
54.95729974082846
54.72115828216849
54.821944784922756
55.80144493614396
55.39336385475861
52.888004753053515
63.117255854590645
48.70445492567665
51.278098778195776
51.83621299310028
52.818042323304965
53.69393476774352
54.34893824420155
54.02909925313649
52.54975016026948
50.5706156377362
48.94050680007281
48.15578465989025
48.39818151545176
49.60686914033261
51.34919859494402
52.24901838299309
51.31294157689772
49.120398968876316
49.141774929837275
50.64381361602597
52.078599776931924
53.265053400829
54.31902682524189
55.07920459986021
55.38330865285257
55.32177233118031
55.287582710166085
55.32102584419992
55.42159683820675
55.6039683399569
55.96981120094339
56.62925744252345
57.84323797570497
57.468174964944446
56.641736446169546
54.31734419964532
50.51262934696834
67.80380804391389
49.81615057707987
52.74864281309527
54.3736941676153
57.024939891202465
60.00404856349548
61.23912116175433
58.56694568270378
54.638159850841205
50.90090185420598
48.26948875461895
46.886536458334476
46.81725032260156
47.81134482086069
49.44424633359294
50.86954667130608
51.18181083841525
51.01131041138749
51.486829215757446
52.823068180326565
54.433410016834195
55.92701310600721
57.1843177756545
58.12856538054059
58.66585569351386
58.842134589479734
58.899621546972476
58.88343687119664
58.83061943154641
58.743514170080424
58.704340308057745
58.751131000014915
58.84321874581755
58.08784521276545
56.618268457899376
53.36520783821948
53.00573601024113
60.08426584577775
59.43983283960572
50.554938050836725
72.3042778151549
52.140669219951754
55.63709611164341
57.29443528710454
61.03423551010296
62.59130485406115
61.736160260713845
57.43554504213122
53.17226538486487
49.31583398502352
46.529362082448344
45.19800008885446
45.32093265343094
46.678294075110124
48.773011409052074
50.97613580583778
52.641924014885134
53.79085888441678
55.07978682435353
56.75069646132802
57.76004106328142
58.5624462948121
59.23403022269144
59.77539028966285
60.18714360302907
60.52120577647037
60.77786301681307
60.95735430924473
61.00861138509878
60.95735430924473
60.77786301681307
60.49552481119076
60.09048349191592
58.66297004408022
56.79697836657647
53.405405454629985
53.22960858909801
54.099142948098326
54.056259122309086
54.75323720253887
76.530030971564
57.345911159605514
63.797136505617225
62.45130958481656
62.286435243641506
60.77790828848973
57.81966972658265
53.7981412661839
49.490870304527895
45.86216131947191
43.60950440617721
43.10128808657536
44.16349958440003
46.50727950615468
49.70552023111977
53.09638156277995
55.241016821245836
56.51474475400317
57.68230362864174
58.69170318897336
59.569278334976715
60.28997981529845
60.8548051593254
61.29031235624596
61.59719898122563
61.82706295690041
61.98015787357721
62.056660131728016
62.031162756133114
61.87810788706517
61.59719898122563
61.21352099362219
60.752209926487446
60.120203464868226
57.908028162391446
54.7531638854781
53.510650059433004
52.9381347780289
51.56279229687043
56.1695308885029
82.15533665780289
73.8920382225246
71.76426916041235
66.7367635205
63.583493348836974
59.11214750078208
53.381507586524805
47.587388786968376
42.96285017338594
40.235124455235855
39.675764524586725
41.15783296842818
44.22291707314712
48.45462452284524
53.445640566270946
55.57911881704826
57.34528517016216
58.74339227848258
59.826894277564584
60.675233679697875
61.36707613023427
61.87810788706517
62.2859825879513
62.54045349683712
62.743771717397635
62.87072622140498
62.89610595076879
62.87072622140498
62.76917002979286
62.59130485406115
62.336905030517684
61.90362538421582
61.469384405168775
60.93172138019231
60.3413821237979
59.749634657387205
58.707304356456795
58.08148569418208
54.749902334421186
50.12019945792567
89.00905329680484
84.66725053352134
78.00270822032657
69.42429121076118
58.24790703135992
46.45357579124673
37.64353369909622
32.674695465156944
31.24282667741801
32.70426895229126
36.475787655901385
42.067722651162775
48.700497404662144
53.0553385131406
56.125037088388154
58.48486916346549
59.98134724206867
61.00861138509878
61.776004851354074
62.3623609908351
62.8199555588134
62.93170121295979
62.91402954573319
62.816258086071905
62.690506632806276
62.509017994365585
62.24887448432329
61.89595191142054
61.460640017233466
60.94041563392326
60.3146598824866
59.64999167059911
59.012540491366465
58.2366140401994
57.35847435304597
56.607420772229865
56.08450200170452
55.8033757118637
55.229890020120976
53.571345253522516
98.97900030405484
69.26548439661187
32.390901247908346
8.159590023755683
5.624306918900913
12.769648107966745
24.511900011130763
36.22096830513387
44.576114573988555
51.26156843061394
55.215005020572825
57.96727095711186
59.02249781961114
59.92351924726912
60.597677521096266
61.06561574497572
61.38925592496163
61.56805451509727
61.62147720231221
61.56582264142875
61.48367990087365
61.3173435459743
61.10910240891233
60.851117023190895
60.56802101832257
60.26642248922696
59.96039785203137
59.668815832967304
59.466492455421616
59.29542012174658
59.20286099229142
59.118010058986954
59.09709230517016
59.17911276259944
59.74692781983076
61.65137601873943
65.48414033046514
57.08463661089317
92.6565852076705
25.97667634315701
5.046651190283924
12.049449475731222
22.14981996063277
30.68656950353808
38.07219569670585
44.224742574656936
49.13720717501631
52.84200435806141
55.342609234022795
57.086340264639055
58.34518140487948
59.2184625399878
59.832209390548584
60.23044871119256
60.49300587892519
60.65498086459334
60.73190751942228
60.77910825487781
60.75939924228059
60.72271879528433
60.668367962478705
60.570789444052586
60.48640467999004
60.370365789277336
60.28946373660695
60.242093558580954
60.26011397527866
60.41946400355471
60.81989672624542
61.40412889847004
62.04242263848909
62.581528332826316
63.21177072345444
65.23404720182654
61.79921322212351
59.17108347045207
20.360979760329514
25.768692479769157
21.051997976488934
7.954551598750442
21.705340576740852
30.72338763288272
37.08110952390685
42.305406998328635
46.676436238050165
50.28894047189064
53.2208158746965
55.50396491194111
57.10610949972821
58.22309192736207
58.96310264601659
59.36757481701499
59.60443028750579
59.68420861329716
59.667834742677435
59.63755499197499
59.61112541301602
59.593859936404066
59.596224264371045
59.58957054615379
59.59981255915486
59.65535857303758
59.70777874430331
59.79684316318231
59.94319276928369
60.17315870096783
60.550486744207994
61.16939429040514
62.31402335530398
64.34574752486103
65.76216737256829
66.08519434878036
64.33910194559559
62.11199435515788
59.89060692971597
60.18484201283417
)
;

boundaryField
{
    ".*"
    {
        type            zeroGradient;
    }
}


// ************************************************************************* //
