// -*- C++ -*-
// File generated by PyFoam - sorry for the ugliness

FoamFile
{
 version 2.0;
 format ascii;
 class volScalarField;
 location "1800";
 object T;
}

dimensions [ 0 0 0 1 0 0 0 ];

internalField nonuniform List<scalar> 459
(
  302.653
  302.372
  302.357
  302.353
  302.349
  302.345
  302.34
  302.333
  302.325
  302.314
  302.304
  302.297
  302.293
  302.295
  302.305
  302.441
  302.415
  302.405
  302.409
  302.415
  302.42
  302.426
  302.431
  302.436
  302.441
  302.447
  302.452
  302.457
  302.462
  302.467
  302.472
  302.478
  302.486
  302.511
  302.838
  302.413
  302.385
  302.386
  302.387
  302.386
  302.383
  302.374
  302.357
  302.334
  302.31
  302.291
  302.28
  302.277
  302.28
  302.279
  302.277
  302.444
  302.395
  302.388
  302.392
  302.399
  302.406
  302.409
  302.411
  302.413
  302.415
  302.417
  302.419
  302.421
  302.423
  302.426
  302.431
  302.439
  302.451
  302.492
  303.033
  302.466
  302.419
  302.427
  302.439
  302.448
  302.45
  302.439
  302.41
  302.369
  302.327
  302.294
  302.275
  302.27
  302.274
  302.279
  302.281
  302.372
  302.368
  302.377
  302.392
  302.407
  302.418
  302.418
  302.418
  302.418
  302.418
  302.418
  302.418
  302.419
  302.419
  302.42
  302.424
  302.43
  302.441
  302.485
  303.229
  302.533
  302.458
  302.471
  302.498
  302.523
  302.537
  302.523
  302.476
  302.409
  302.344
  302.296
  302.269
  302.264
  302.271
  302.282
  302.291
  302.308
  302.329
  302.357
  302.386
  302.413
  302.437
  302.454
  302.469
  302.482
  302.493
  302.502
  302.51
  302.516
  302.521
  302.525
  302.526
  302.492
  302.464
  302.452
  302.487
  303.421
  302.62
  302.506
  302.515
  302.554
  302.598
  302.629
  302.607
  302.535
  302.437
  302.351
  302.29
  302.26
  302.256
  302.27
  302.29
  302.312
  302.337
  302.366
  302.399
  302.432
  302.463
  302.489
  302.51
  302.529
  302.544
  302.557
  302.566
  302.572
  302.574
  302.572
  302.567
  302.558
  302.533
  302.497
  302.469
  302.484
  302.584
  302.63
  302.636
  303.595
  302.734
  302.592
  302.58
  302.621
  302.682
  302.704
  302.654
  302.554
  302.438
  302.337
  302.27
  302.241
  302.246
  302.272
  302.307
  302.344
  302.381
  302.419
  302.458
  302.494
  302.525
  302.551
  302.572
  302.588
  302.601
  302.611
  302.618
  302.62
  302.618
  302.611
  302.6
  302.586
  302.561
  302.527
  302.493
  302.488
  302.53
  302.55
  302.591
  303.758
  302.915
  302.777
  302.753
  302.771
  302.804
  302.762
  302.655
  302.516
  302.381
  302.277
  302.221
  302.21
  302.236
  302.286
  302.342
  302.397
  302.446
  302.491
  302.53
  302.564
  302.592
  302.614
  302.631
  302.643
  302.652
  302.658
  302.661
  302.66
  302.654
  302.643
  302.628
  302.61
  302.586
  302.555
  302.522
  302.507
  302.519
  302.533
  302.567
  303.991
  303.365
  303.217
  303.138
  303.067
  302.933
  302.746
  302.542
  302.359
  302.224
  302.152
  302.142
  302.178
  302.245
  302.328
  302.41
  302.478
  302.532
  302.574
  302.607
  302.634
  302.654
  302.67
  302.68
  302.688
  302.693
  302.694
  302.693
  302.689
  302.682
  302.672
  302.655
  302.638
  302.617
  302.594
  302.571
  302.564
  302.584
  302.61
  302.762
  304.328
  304.031
  303.735
  303.422
  303.038
  302.627
  302.288
  302.056
  301.938
  301.919
  301.974
  302.077
  302.194
  302.313
  302.431
  302.522
  302.58
  302.62
  302.65
  302.673
  302.691
  302.704
  302.714
  302.719
  302.722
  302.723
  302.722
  302.719
  302.715
  302.711
  302.708
  302.708
  302.71
  302.719
  302.737
  302.767
  302.808
  302.849
  302.875
  302.938
  293.349
  295.222
  297.216
  298.698
  299.771
  300.575
  301.185
  301.644
  301.984
  302.244
  302.396
  302.502
  302.579
  302.632
  302.668
  302.693
  302.712
  302.726
  302.736
  302.742
  302.747
  302.749
  302.75
  302.75
  302.75
  302.75
  302.75
  302.75
  302.752
  302.754
  302.76
  302.77
  302.788
  302.812
  302.842
  302.871
  302.893
  302.915
  294.547
  297
  299.193
  300.307
  301.011
  301.504
  301.858
  302.126
  302.328
  302.475
  302.571
  302.636
  302.681
  302.711
  302.732
  302.746
  302.756
  302.763
  302.767
  302.77
  302.771
  302.772
  302.773
  302.773
  302.774
  302.774
  302.775
  302.776
  302.777
  302.779
  302.784
  302.791
  302.803
  302.82
  302.841
  302.864
  302.863
  302.896
  298.287
  298.211
  298.205
  300.523
  301.446
  301.842
  302.085
  302.269
  302.413
  302.525
  302.611
  302.675
  302.718
  302.748
  302.769
  302.782
  302.792
  302.798
  302.801
  302.803
  302.804
  302.804
  302.804
  302.803
  302.802
  302.802
  302.801
  302.8
  302.799
  302.798
  302.798
  302.798
  302.8
  302.803
  302.808
  302.821
  302.832
  302.84
  302.844
  302.884
)
;

boundaryField
{
  floor
  {
    type wallHeatTransfer;
    Tinf uniform 305.2;
    alphaWall uniform 0.24;
    value nonuniform List<scalar> 29
(
  302.582
  302.934
  302.852
  302.809
  302.812
  302.826
  302.844
  302.868
  302.894
  302.919
  302.944
  302.968
  302.992
  303.014
  303.036
  303.057
  303.079
  303.103
  303.122
  303.176
  303.176
  303.056
  302.997
  302.965
  302.582
  302.934
  302.918
  302.676
  302.54
)
;
  }
  ceiling
  {
    type wallHeatTransfer;
    Tinf uniform 303.2;
    alphaWall uniform 0.24;
    value nonuniform List<scalar> 43
(
  298.607
  298.521
  298.506
  300.675
  301.55
  301.925
  302.155
  302.33
  302.467
  302.575
  302.66
  302.722
  302.767
  302.798
  302.82
  302.835
  302.846
  302.853
  302.858
  302.861
  302.862
  302.862
  302.862
  302.861
  302.859
  302.857
  302.855
  302.853
  302.851
  302.848
  302.846
  302.845
  302.844
  302.845
  302.847
  302.857
  302.866
  302.874
  302.88
  302.918
  304.277
  303.998
  295.059
)
;
  }
  sWall
  {
    type wallHeatTransfer;
    Tinf uniform 315.2;
    alphaWall uniform 0.36;
    value uniform 299.895;
  }
  nWall
  {
    type wallHeatTransfer;
    Tinf uniform 307.2;
    alphaWall uniform 0.36;
    value nonuniform List<scalar> 6
(
  303.443
  303.379
  303.281
  303.517
  303.495
  303.536
)
;
  }
  sideWalls
  {
    type empty;
  }
  glass1
  {
    type wallHeatTransfer;
    Tinf uniform 315.2;
    alphaWall uniform 4.3;
    value nonuniform List<scalar> 9
(
  311.1
  310.414
  309.988
  309.668
  309.403
  309.165
  308.997
  309.085
  309.338
)
;
  }
  glass2
  {
    type wallHeatTransfer;
    Tinf uniform 307.2;
    alphaWall uniform 4.3;
    value nonuniform List<scalar> 2
(
  305.438
  305.581
)
;
  }
  sun
  {
    type wallHeatTransfer;
    Tinf uniform 305.2;
    alphaWall uniform 0.24;
    value nonuniform List<scalar> 14
(
  302.91
  302.638
  302.621
  302.607
  302.595
  302.584
  302.572
  302.56
  302.548
  302.538
  302.53
  302.529
  302.536
  302.553
)
;
  }
  heatsource1
  {
    type fixedGradient;
    gradient uniform 0;
  }
  heatsource2
  {
    type fixedGradient;
    gradient uniform 0;
  }
  Table_master
  {
    type zeroGradient;
  }
  Table_slave
  {
    type zeroGradient;
  }
  inlet
  {
    type fixedValue;
    value uniform 290.15;
  }
  outlet
  {
    type zeroGradient;
  }
} 	// ************************************************************************* //

