// -*- C++ -*-
// File generated by PyFoam - sorry for the ugliness

FoamFile
{
 version 2.0;
 format ascii;
 class volVectorField;
 location "1800";
 object U;
}

dimensions [ 0 1 -1 0 0 0 0 ];

internalField nonuniform List<vector> 459
(
  (0.033176 0.0883337 0)
  (-0.171908 0.026523 0)
  (-0.197203 0.0178271 0)
  (-0.227903 0.0117796 0)
  (-0.249395 0.00516519 0)
  (-0.260676 -0.00176034 0)
  (-0.260249 -0.00899956 0)
  (-0.247539 -0.0165018 0)
  (-0.223526 -0.0234681 0)
  (-0.190385 -0.0287766 0)
  (-0.151671 -0.0315952 0)
  (-0.111263 -0.0316162 0)
  (-0.0728203 -0.0291267 0)
  (-0.0413982 -0.0254711 0)
  (-0.0321636 -0.0224561 0)
  (-0.00359352 0.00887403 0)
  (-0.0287495 -0.0195172 0)
  (-0.00327524 -0.0296991 0)
  (0.0214976 -0.0223009 0)
  (0.0389868 -0.0151383 0)
  (0.0524221 -0.00973455 0)
  (0.0605835 -0.00576777 0)
  (0.0647012 -0.00368644 0)
  (0.0665295 -0.00280629 0)
  (0.0674434 -0.00239189 0)
  (0.068012 -0.00212295 0)
  (0.0683164 -0.00190208 0)
  (0.0682871 -0.00163765 0)
  (0.0677077 -0.00114924 0)
  (0.0659885 -4.00937e-05 0)
  (0.0618743 0.00224143 0)
  (0.054009 0.00463631 0)
  (0.0467886 0.00663457 0)
  (-0.0140224 0.0230451 0)
  (0.20953 0.180515 0)
  (-0.158933 0.0699002 0)
  (-0.157732 0.053031 0)
  (-0.189167 0.040275 0)
  (-0.210283 0.0259532 0)
  (-0.22169 0.0101202 0)
  (-0.221828 -0.00729622 0)
  (-0.210143 -0.0253075 0)
  (-0.188203 -0.0413775 0)
  (-0.158508 -0.0530467 0)
  (-0.124604 -0.0588087 0)
  (-0.0899872 -0.0584168 0)
  (-0.0577988 -0.0524475 0)
  (-0.0313581 -0.0424565 0)
  (-0.0148793 -0.0305389 0)
  (-0.00134586 -0.0126998 0)
  (-0.00237355 0.0168714 0)
  (0.0719905 0.0371239 0)
  (0.0306563 -0.0206978 0)
  (0.0387581 -0.034317 0)
  (0.0509416 -0.0298242 0)
  (0.0605425 -0.0209786 0)
  (0.0671981 -0.0126697 0)
  (0.0699961 -0.00528255 0)
  (0.0704571 -0.00115383 0)
  (0.0703543 0.00056425 0)
  (0.070437 0.00132166 0)
  (0.0706249 0.00177728 0)
  (0.0707601 0.00215645 0)
  (0.0707928 0.00264246 0)
  (0.0706684 0.00359581 0)
  (0.0698242 0.00597357 0)
  (0.065678 0.0125873 0)
  (0.0552614 0.0180866 0)
  (0.0505742 0.0217939 0)
  (-0.0553309 0.0496316 0)
  (0.370733 0.269617 0)
  (-0.173874 0.110726 0)
  (-0.117965 0.0853205 0)
  (-0.147892 0.0628302 0)
  (-0.166347 0.039361 0)
  (-0.176428 0.0137704 0)
  (-0.17552 -0.0142969 0)
  (-0.163018 -0.0427544 0)
  (-0.141673 -0.0671428 0)
  (-0.114596 -0.0837965 0)
  (-0.0853062 -0.0909839 0)
  (-0.0564956 -0.0890728 0)
  (-0.0301629 -0.0791574 0)
  (-0.00830318 -0.0631778 0)
  (0.0080089 -0.0418305 0)
  (0.0190909 -0.0163168 0)
  (0.024483 0.0207142 0)
  (0.120944 -0.0358523 0)
  (0.0796907 -0.0442784 0)
  (0.0738353 -0.0427326 0)
  (0.0758271 -0.0355039 0)
  (0.0774276 -0.0260858 0)
  (0.0786169 -0.0179015 0)
  (0.0771184 -0.0141977 0)
  (0.0724139 -0.00989971 0)
  (0.0690893 -0.0075605 0)
  (0.0676225 -0.00621957 0)
  (0.0670172 -0.00535849 0)
  (0.0667284 -0.00475491 0)
  (0.0667693 -0.0041969 0)
  (0.0676393 -0.00329434 0)
  (0.0706101 3.66019e-05 0)
  (0.0682516 0.0181401 0)
  (0.0535889 0.0306768 0)
  (0.0570564 0.0389136 0)
  (-0.0923468 0.0767734 0)
  (0.515614 0.341048 0)
  (-0.206705 0.146744 0)
  (-0.0766964 0.112464 0)
  (-0.104029 0.0815967 0)
  (-0.116765 0.051155 0)
  (-0.122556 0.0171552 0)
  (-0.116821 -0.0215238 0)
  (-0.101273 -0.0603081 0)
  (-0.0802611 -0.0916095 0)
  (-0.0569996 -0.111427 0)
  (-0.0343622 -0.118634 0)
  (-0.0135214 -0.114837 0)
  (0.00528939 -0.10127 0)
  (0.0208471 -0.0811529 0)
  (0.0344811 -0.0566116 0)
  (0.0494608 -0.0291417 0)
  (0.0720117 0.00135878 0)
  (0.104597 0.0149096 0)
  (0.110214 -0.0281033 0)
  (0.0945584 -0.0384646 0)
  (0.0850497 -0.0363999 0)
  (0.0802495 -0.0310335 0)
  (0.076926 -0.0237594 0)
  (0.0751011 -0.0147964 0)
  (0.0770209 -0.00879384 0)
  (0.0822195 -0.00668596 0)
  (0.0865064 -0.00546585 0)
  (0.0892848 -0.00452342 0)
  (0.0908267 -0.00340545 0)
  (0.0905029 -0.00182983 0)
  (0.0872598 0.000412758 0)
  (0.0798347 0.00362821 0)
  (0.0652101 0.00842478 0)
  (0.0527978 0.0297865 0)
  (0.0400585 0.047188 0)
  (0.0605832 0.0602939 0)
  (-0.13555 0.0999321 0)
  (0.639896 0.396231 0)
  (-0.247184 0.176016 0)
  (-0.0368485 0.127515 0)
  (-0.0581497 0.091723 0)
  (-0.0623401 0.057079 0)
  (-0.0596714 0.0162852 0)
  (-0.0422072 -0.0327893 0)
  (-0.0227033 -0.0789258 0)
  (-0.00396179 -0.112879 0)
  (0.0124326 -0.132061 0)
  (0.0250164 -0.136501 0)
  (0.0348817 -0.129802 0)
  (0.042508 -0.114364 0)
  (0.0488167 -0.092954 0)
  (0.0550284 -0.068315 0)
  (0.0630341 -0.0437153 0)
  (0.0755227 -0.025237 0)
  (0.0863453 -0.0246455 0)
  (0.0872681 -0.0335452 0)
  (0.0801076 -0.0341425 0)
  (0.0713281 -0.0303921 0)
  (0.0644572 -0.025567 0)
  (0.0595171 -0.0200333 0)
  (0.0568155 -0.0138195 0)
  (0.0569935 -0.00778224 0)
  (0.0596648 -0.00487496 0)
  (0.062605 -0.00370608 0)
  (0.0653333 -0.00265358 0)
  (0.0677058 -0.000661065 0)
  (0.0692564 0.00276447 0)
  (0.0687517 0.00766675 0)
  (0.0656559 0.0141955 0)
  (0.0592696 0.0230747 0)
  (0.0516334 0.0394809 0)
  (0.0400652 0.0590031 0)
  (0.0682338 0.0802891 0)
  (-0.0351259 0.112256 0)
  (0.0477704 0.0271706 0)
  (-0.0687435 -0.0375677 0)
  (-0.286158 -0.0611752 0)
  (0.729401 0.441962 0)
  (-0.286436 0.195223 0)
  (-0.00687235 0.121773 0)
  (-0.00960619 0.0896076 0)
  (-0.000704402 0.05342 0)
  (0.0208428 0.00327089 0)
  (0.0502458 -0.0527295 0)
  (0.0698069 -0.0967637 0)
  (0.0818337 -0.125934 0)
  (0.0871039 -0.140404 0)
  (0.0870714 -0.141683 0)
  (0.0835164 -0.132423 0)
  (0.0779847 -0.115476 0)
  (0.0720952 -0.0938139 0)
  (0.067281 -0.0702319 0)
  (0.0647911 -0.0478639 0)
  (0.0653107 -0.0308463 0)
  (0.0656141 -0.0241808 0)
  (0.0617693 -0.0243519 0)
  (0.0540204 -0.0243486 0)
  (0.0454434 -0.0223096 0)
  (0.0384377 -0.019293 0)
  (0.033531 -0.0158224 0)
  (0.0310075 -0.0120632 0)
  (0.0310021 -0.0088106 0)
  (0.0330461 -0.00754724 0)
  (0.0360229 -0.00724594 0)
  (0.0394728 -0.00654535 0)
  (0.0431631 -0.00437296 0)
  (0.0469027 0.000127019 0)
  (0.0498092 0.00698266 0)
  (0.0511001 0.0158046 0)
  (0.051099 0.0269093 0)
  (0.0513474 0.0421854 0)
  (0.0490558 0.0612062 0)
  (0.0764 0.0858496 0)
  (0.0487801 0.10485 0)
  (0.0976482 0.0695588 0)
  (0.12226 0.0453015 0)
  (-0.137965 -0.00964747 0)
  (0.786475 0.483767 0)
  (-0.304297 0.17957 0)
  (0.0242838 0.0653777 0)
  (0.0581345 0.0547513 0)
  (0.0845719 0.0279067 0)
  (0.129282 -0.0271452 0)
  (0.157692 -0.0755332 0)
  (0.171048 -0.10958 0)
  (0.171512 -0.129353 0)
  (0.161867 -0.136319 0)
  (0.145347 -0.132408 0)
  (0.125085 -0.120119 0)
  (0.103797 -0.102273 0)
  (0.0837413 -0.0815446 0)
  (0.0664818 -0.0601409 0)
  (0.052993 -0.0406105 0)
  (0.043457 -0.0259388 0)
  (0.0361712 -0.0184686 0)
  (0.028801 -0.0164655 0)
  (0.0207961 -0.0160301 0)
  (0.0132839 -0.0150995 0)
  (0.00734905 -0.0137679 0)
  (0.00334187 -0.0123149 0)
  (0.00143123 -0.0108859 0)
  (0.00160553 -0.0099728 0)
  (0.00338349 -0.0101253 0)
  (0.00605767 -0.0106548 0)
  (0.00935242 -0.010591 0)
  (0.013296 -0.00898901 0)
  (0.0180152 -0.00476647 0)
  (0.0247106 0.00299133 0)
  (0.0305272 0.0126652 0)
  (0.0361792 0.0238487 0)
  (0.0436073 0.0373932 0)
  (0.0510635 0.0529174 0)
  (0.0762209 0.0729457 0)
  (0.0886282 0.0801018 0)
  (0.125463 0.0519319 0)
  (0.167986 0.0427607 0)
  (-0.0316694 0.0968094 0)
  (0.894572 0.483077 0)
  (-0.0557705 0.157897 0)
  (0.119991 -0.023732 0)
  (0.209198 -0.0603912 0)
  (0.255837 -0.0745355 0)
  (0.280258 -0.0913277 0)
  (0.288286 -0.106623 0)
  (0.279551 -0.116095 0)
  (0.256365 -0.118658 0)
  (0.223064 -0.114571 0)
  (0.184411 -0.104726 0)
  (0.14453 -0.0904168 0)
  (0.106722 -0.0735429 0)
  (0.0732988 -0.0559037 0)
  (0.0454248 -0.0386859 0)
  (0.0239758 -0.0238206 0)
  (0.00891925 -0.0136324 0)
  (-0.00138844 -0.00894236 0)
  (-0.00906128 -0.00818374 0)
  (-0.0156284 -0.00864739 0)
  (-0.0211792 -0.00905655 0)
  (-0.0254714 -0.009334 0)
  (-0.0284384 -0.00960901 0)
  (-0.0300739 -0.0100097 0)
  (-0.0305046 -0.0107448 0)
  (-0.0301153 -0.0118972 0)
  (-0.0293159 -0.0131068 0)
  (-0.0282174 -0.0138736 0)
  (-0.0266386 -0.0136757 0)
  (-0.0241342 -0.0118947 0)
  (-0.0195616 -0.00772969 0)
  (-0.0090614 -0.000502236 0)
  (-0.00074527 0.00826932 0)
  (0.0105376 0.0169299 0)
  (0.0221403 0.0245964 0)
  (0.0433451 0.0332768 0)
  (0.0617936 0.0253984 0)
  (0.0805252 -0.00573466 0)
  (0.142008 0.0452661 0)
  (-0.456198 0.222468 0)
  (1.04703 0.427179 0)
  (0.496034 0.278833 0)
  (0.515238 0.172812 0)
  (0.55024 0.0940665 0)
  (0.529725 0.039635 0)
  (0.481384 -0.00325126 0)
  (0.425538 -0.0343358 0)
  (0.364569 -0.0529863 0)
  (0.299364 -0.0606272 0)
  (0.233374 -0.0598612 0)
  (0.170729 -0.0534151 0)
  (0.114348 -0.0433125 0)
  (0.0665058 -0.031807 0)
  (0.0276319 -0.0206027 0)
  (-0.00309954 -0.010539 0)
  (-0.0232163 -0.00414835 0)
  (-0.0346585 -0.00153702 0)
  (-0.0416094 -0.0012491 0)
  (-0.0465966 -0.00223342 0)
  (-0.0509588 -0.00359822 0)
  (-0.0548313 -0.00494018 0)
  (-0.0581832 -0.00623094 0)
  (-0.0610325 -0.00750315 0)
  (-0.063475 -0.00879233 0)
  (-0.0657174 -0.0101266 0)
  (-0.0680973 -0.0114282 0)
  (-0.0709694 -0.0124134 0)
  (-0.0746317 -0.0126662 0)
  (-0.0794098 -0.0116597 0)
  (-0.0857984 -0.00871316 0)
  (-0.0945068 -0.0029997 0)
  (-0.105231 0.00603223 0)
  (-0.116269 0.0179694 0)
  (-0.133659 0.0331276 0)
  (-0.161118 0.0512717 0)
  (-0.201074 0.0703025 0)
  (-0.257426 0.0848809 0)
  (-0.320775 0.0920155 0)
  (-0.392266 0.092462 0)
  (-0.66072 0.0867823 0)
  (-0.17895 -0.0207234 0)
  (0.0999205 -0.0365286 0)
  (0.176703 -0.055807 0)
  (0.16338 -0.0480573 0)
  (0.143686 -0.0346758 0)
  (0.119163 -0.0224875 0)
  (0.0866785 -0.0120549 0)
  (0.0505169 -0.00397604 0)
  (0.0154839 0.00152703 0)
  (-0.0172152 0.00506488 0)
  (-0.0402366 0.00616338 0)
  (-0.056921 0.00604586 0)
  (-0.0673574 0.00485179 0)
  (-0.0727431 0.00261807 0)
  (-0.0758238 9.53473e-05 0)
  (-0.0779865 -0.00248254 0)
  (-0.0800335 -0.00508802 0)
  (-0.08235 -0.00750114 0)
  (-0.0850908 -0.0094696 0)
  (-0.088062 -0.0109883 0)
  (-0.0911848 -0.0121255 0)
  (-0.0945654 -0.0129126 0)
  (-0.0983623 -0.0133646 0)
  (-0.10274 -0.0134023 0)
  (-0.107787 -0.0127867 0)
  (-0.113447 -0.0111248 0)
  (-0.119469 -0.00790938 0)
  (-0.125377 -0.00258051 0)
  (-0.130444 0.00522299 0)
  (-0.134273 0.015852 0)
  (-0.137325 0.030331 0)
  (-0.140186 0.0491164 0)
  (-0.143996 0.0711151 0)
  (-0.149392 0.0916643 0)
  (-0.15283 0.0993284 0)
  (-0.134972 0.0721896 0)
  (-0.0813061 -0.0315821 0)
  (-0.289033 -0.225932 0)
  (0.0360421 0.198052 0)
  (0.0125072 0.0635979 0)
  (-0.0330049 0.0118194 0)
  (-0.0569227 0.0110772 0)
  (-0.0754323 0.0172835 0)
  (-0.0889812 0.0220193 0)
  (-0.0978369 0.0258517 0)
  (-0.104476 0.0289656 0)
  (-0.109144 0.0307686 0)
  (-0.112134 0.0310388 0)
  (-0.113252 0.0303553 0)
  (-0.113082 0.0299511 0)
  (-0.111865 0.0299747 0)
  (-0.110216 0.0305161 0)
  (-0.108716 0.0317974 0)
  (-0.107588 0.03364 0)
  (-0.106965 0.035577 0)
  (-0.106885 0.0370554 0)
  (-0.107281 0.0374939 0)
  (-0.108154 0.0367588 0)
  (-0.109472 0.0355136 0)
  (-0.111215 0.0339196 0)
  (-0.113354 0.0320728 0)
  (-0.115838 0.0300707 0)
  (-0.118565 0.0280282 0)
  (-0.121355 0.026065 0)
  (-0.123918 0.0242702 0)
  (-0.125703 0.0228857 0)
  (-0.125794 0.0233546 0)
  (-0.12286 0.0270005 0)
  (-0.115275 0.0350168 0)
  (-0.101877 0.0485196 0)
  (-0.0830457 0.0672806 0)
  (-0.0600555 0.0862609 0)
  (-0.0359952 0.0970607 0)
  (0.00756985 0.0794743 0)
  (0.144343 0.00331429 0)
  (-0.207525 -0.138726 0)
  (-0.0939272 -0.34758 0)
  (-0.447763 -0.138612 0)
  (-0.334443 0.0446403 0)
  (-0.292665 -0.044222 0)
  (-0.251808 -0.0509405 0)
  (-0.240549 -0.0436958 0)
  (-0.232517 -0.0367656 0)
  (-0.22311 -0.0324199 0)
  (-0.211305 -0.0302927 0)
  (-0.197442 -0.0305229 0)
  (-0.182559 -0.0336569 0)
  (-0.168121 -0.0396383 0)
  (-0.155362 -0.0476188 0)
  (-0.144877 -0.0563089 0)
  (-0.13672 -0.0652277 0)
  (-0.130699 -0.074151 0)
  (-0.126394 -0.0827136 0)
  (-0.123345 -0.0905217 0)
  (-0.121221 -0.0971176 0)
  (-0.119834 -0.102003 0)
  (-0.119141 -0.1048 0)
  (-0.119156 -0.105422 0)
  (-0.119831 -0.104566 0)
  (-0.120997 -0.102439 0)
  (-0.122492 -0.0992044 0)
  (-0.12413 -0.0949484 0)
  (-0.12566 -0.089664 0)
  (-0.126731 -0.0832258 0)
  (-0.126889 -0.0753573 0)
  (-0.125529 -0.0658602 0)
  (-0.121521 -0.0553582 0)
  (-0.11269 -0.0436857 0)
  (-0.0960654 -0.0303281 0)
  (-0.0695388 -0.0143066 0)
  (-0.0346336 0.00510668 0)
  (0.024925 0.0300996 0)
  (0.0752706 0.0306979 0)
  (0.123831 0.00886999 0)
  (0.176929 -0.0320796 0)
  (-0.177103 -0.100421 0)
)
;

boundaryField
{
  floor
  {
    type noSlip;
  }
  ceiling
  {
    type noSlip;
  }
  sWall
  {
    type noSlip;
  }
  nWall
  {
    type noSlip;
  }
  sideWalls
  {
    type empty;
  }
  glass1
  {
    type noSlip;
  }
  glass2
  {
    type noSlip;
  }
  sun
  {
    type noSlip;
  }
  heatsource1
  {
    type noSlip;
  }
  heatsource2
  {
    type noSlip;
  }
  Table_master
  {
    type noSlip;
  }
  Table_slave
  {
    type noSlip;
  }
  inlet
  {
    type fixedValue;
    value uniform (0.277164 -0.114805 0);
  }
  outlet
  {
    type zeroGradient;
  }
} 	// ************************************************************************* //

