/*--------------------------------*- C++ -*----------------------------------*\
  =========                 |
  \\      /  F ield         | OpenFOAM: The Open Source CFD Toolbox
   \\    /   O peration     | Website:  https://openfoam.org
    \\  /    A nd           | Version:  6
     \\/     M anipulation  |
\*---------------------------------------------------------------------------*/
FoamFile
{
    version     2.0;
    format      ascii;
    class       volScalarField;
    location    "70";
    object      alphat;
}
// * * * * * * * * * * * * * * * * * * * * * * * * * * * * * * * * * * * * * //

dimensions      [1 -1 -1 0 0 0 0];

internalField   nonuniform List<scalar> 
459
(
0.00157735
0.001757
0.00178581
0.00174021
0.00160097
0.00143317
0.00129954
0.00120368
0.0011332
0.00107616
0.00102839
0.000990808
0.000961712
0.00093822
0.000913261
0.000686991
0.000870246
0.000929383
0.000962258
0.000967034
0.000932956
0.000861857
0.000797659
0.000742119
0.000692418
0.000647478
0.000606607
0.000569204
0.000534661
0.000502271
0.000471219
0.000441091
0.000425237
0.000388784
0.00212615
0.00677179
0.00822161
0.00893345
0.00845838
0.0073233
0.0062372
0.00538263
0.00485163
0.00455117
0.00430546
0.00391258
0.00338142
0.00273164
0.00191762
0.000981361
0.000736294
0.000796027
0.00334276
0.00398871
0.00409624
0.00369846
0.00296773
0.00227384
0.00202106
0.00182415
0.00164869
0.00148915
0.00134598
0.00121591
0.00109366
0.000974048
0.000865932
0.00079073
0.00100442
0.000506039
0.00229738
0.00784108
0.00903987
0.0111937
0.0116756
0.0111059
0.0101275
0.00866924
0.00719067
0.00619303
0.0057531
0.0053337
0.00459014
0.00364908
0.00265897
0.00176915
0.00106832
0.00116865
0.00456348
0.0049593
0.00453616
0.00365487
0.00242213
0.000878504
0.000707013
0.000626226
0.000574498
0.000534349
0.000500403
0.00047103
0.00044594
0.000427971
0.000558454
0.000683408
0.00135296
0.000619685
0.0026172
0.00338207
0.00390602
0.00488334
0.00660488
0.00823169
0.00929525
0.00968865
0.00950974
0.00832404
0.00718673
0.00674392
0.00609354
0.00501203
0.00375118
0.00256786
0.00172533
0.00135797
0.00324611
0.00470388
0.00464621
0.00392676
0.00299854
0.00191699
0.00103073
0.00100474
0.000970993
0.000953099
0.000940533
0.000924427
0.000896842
0.00085258
0.00080797
0.000856856
0.000923185
0.00175327
0.000730505
0.00405355
0.00467729
0.00460009
0.0045203
0.00497731
0.00605029
0.00737632
0.00855072
0.00929516
0.00926804
0.00858023
0.00814679
0.00796325
0.00743233
0.00666495
0.00583601
0.00509985
0.00462077
0.00450846
0.00452054
0.00413831
0.00373065
0.00350645
0.00353398
0.00378953
0.00414553
0.00432305
0.00433763
0.00430927
0.00422684
0.00406824
0.00378209
0.00320721
0.00261571
0.00207554
0.00180459
0.00130994
0.000863692
0.000986459
0.00112777
0.00437881
0.00574747
0.00553728
0.0050891
0.00505967
0.00562947
0.00667699
0.00786831
0.00882244
0.00919156
0.00899341
0.00896504
0.00904743
0.0089163
0.00847787
0.00783338
0.00702169
0.00611598
0.00524402
0.00447909
0.00387008
0.0034659
0.00328535
0.00337331
0.00374931
0.00426698
0.0046723
0.004863
0.00492047
0.00490164
0.00482507
0.00469502
0.0043963
0.00387077
0.00321481
0.00236222
0.00187391
0.00151413
0.00194495
0.00121679
0.00463829
0.00638579
0.00615901
0.00521674
0.00514455
0.00557958
0.00648723
0.00759727
0.00853003
0.00896703
0.0089055
0.00881814
0.00921248
0.00948055
0.00937337
0.00896264
0.00826181
0.00730402
0.00619352
0.00510038
0.00418274
0.00349162
0.00304412
0.00290485
0.00316075
0.0037336
0.00428141
0.00454168
0.00464617
0.00467173
0.00466986
0.00467433
0.00468687
0.00445179
0.00393745
0.0032642
0.00274842
0.00256093
0.00249356
0.00149417
0.00495679
0.00619847
0.00617475
0.00539678
0.00549229
0.00583877
0.00664247
0.00764403
0.00845712
0.00883105
0.00877217
0.00861
0.00872626
0.00912945
0.00943836
0.00935685
0.00892353
0.00818442
0.00720684
0.00610588
0.00500387
0.00397541
0.00312206
0.00259426
0.00263296
0.00321548
0.00394328
0.00426625
0.00434759
0.00435167
0.00437528
0.00447721
0.00469249
0.00497863
0.00475431
0.00465565
0.00492345
0.00538667
0.00598012
0.0020502
0.00541235
0.00630707
0.008357
0.00581622
0.00609896
0.00666255
0.00716276
0.00792805
0.00862122
0.0088907
0.00877221
0.00852027
0.00839824
0.00851202
0.00876368
0.00886133
0.00869606
0.00825563
0.00758594
0.00676407
0.00584309
0.0047725
0.00359483
0.0025365
0.00221947
0.00273443
0.00368812
0.0041663
0.00421198
0.00408841
0.00395174
0.00385855
0.00379923
0.00375137
0.00370437
0.00363565
0.00346774
0.00317082
0.00286886
0.00186868
0.0117787
0.00646948
0.00636063
0.00766918
0.00797762
0.00846734
0.00894296
0.00907126
0.00880119
0.00839938
0.00804214
0.00782095
0.00773138
0.00768096
0.00754928
0.00729005
0.00689986
0.00640922
0.00584569
0.00517767
0.0042629
0.00274973
0.00188898
0.00222375
0.00330701
0.00408431
0.00426497
0.00413994
0.00395374
0.00382074
0.00376826
0.00374814
0.0036911
0.0035497
0.00327076
0.00286067
0.00238083
0.00149901
0.00439733
0.00438422
0.00683632
0.00756305
0.00795097
0.00827749
0.00847622
0.00832395
0.00781482
0.00723777
0.00669729
0.00625154
0.0059073
0.00563479
0.00538032
0.00514561
0.00491744
0.0046866
0.00444404
0.00414127
0.00361629
0.00261746
0.00159151
0.00168029
0.00260114
0.00339365
0.00371841
0.00380614
0.00380223
0.0037836
0.00383224
0.00391085
0.00396042
0.00394785
0.00382411
0.00362097
0.00302819
0.00152335
0.002224
0.00254738
0.00284744
0.00198772
0.00208298
0.00221247
0.00228776
0.0022975
0.00224078
0.00208333
0.00194881
0.00182378
0.00171036
0.00160918
0.00151947
0.00144163
0.00137568
0.00131828
0.00126719
0.0012208
0.00117781
0.00113594
0.00108951
0.0010323
0.000973117
0.000963824
0.00105498
0.00109898
0.0011343
0.00117215
0.0012216
0.0012883
0.00136783
0.00146095
0.00156228
0.00168759
0.00171527
0.00166424
0.00154467
0.00141919
)
;

boundaryField
{
    floor
    {
        type            compressible::alphatWallFunction;
        Prt             0.85;
        value           nonuniform List<scalar> 
29
(
0.00012998
9.72184e-05
0.000123809
0.000132266
0.000136938
0.000137615
0.000132787
0.000122645
0.000113399
0.000105329
9.80455e-05
9.14053e-05
8.53172e-05
7.97016e-05
7.44747e-05
6.95351e-05
6.47617e-05
6.00914e-05
5.76133e-05
5.18825e-05
5.18818e-05
7.00912e-05
8.72298e-05
0.000103576
0.000129979
9.72173e-05
0.000113127
0.000165798
0.000191768
)
;
    }
    ceiling
    {
        type            compressible::alphatWallFunction;
        Prt             0.85;
        value           nonuniform List<scalar> 
43
(
0.000306237
0.00034757
0.00038543
0.000275637
0.000288027
0.00030477
0.000314454
0.0003157
0.0003084
0.000288057
0.000270547
0.000254155
0.000239178
0.000225723
0.000213715
0.00020323
0.000194298
0.000186484
0.000179495
0.000173121
0.000167188
0.000161384
0.000154914
0.000146901
0.000138567
0.000137321
0.000150104
0.000156234
0.000161141
0.000166384
0.000173205
0.000182355
0.000193195
0.000205797
0.000219407
0.0002361
0.000239776
0.000233006
0.000217046
0.000200151
0.000695875
0.000800242
0.000575302
)
;
    }
    sWall
    {
        type            compressible::alphatWallFunction;
        Prt             0.85;
        value           uniform 0.000305122;
    }
    nWall
    {
        type            compressible::alphatWallFunction;
        Prt             0.85;
        value           nonuniform List<scalar> 6(0.00015984 0.000172138 0.000209862 0.000210541 0.000213808 0.000199776);
    }
    sideWalls
    {
        type            empty;
    }
    glass1
    {
        type            compressible::alphatWallFunction;
        Prt             0.85;
        value           nonuniform List<scalar> 9(0.000215836 0.000287091 0.000309146 0.000349461 0.000525932 0.00056476 0.000595513 0.00063305 0.000686413);
    }
    glass2
    {
        type            compressible::alphatWallFunction;
        Prt             0.85;
        value           nonuniform List<scalar> 2(0.000281158 0.000257676);
    }
    sun
    {
        type            compressible::alphatWallFunction;
        Prt             0.85;
        value           nonuniform List<scalar> 
14
(
0.000221285
0.000245135
0.00024892
0.000242892
0.000224404
0.000201879
0.000183728
0.000170579
0.000160835
0.000152901
0.000146223
0.000140943
0.000136841
0.00013352
)
;
    }
    heatsource1
    {
        type            compressible::alphatWallFunction;
        Prt             0.85;
        value           nonuniform List<scalar> 3(0.000123052 0.000140515 0.000160292);
    }
    heatsource2
    {
        type            compressible::alphatWallFunction;
        Prt             0.85;
        value           nonuniform List<scalar> 4(0.000139834 0.000104656 0.000104655 0.000152059);
    }
    Table_master
    {
        type            compressible::alphatWallFunction;
        Prt             0.85;
        value           nonuniform List<scalar> 9(0.000125267 0.000100422 8.84569e-05 8.06982e-05 7.46199e-05 6.94376e-05 6.49186e-05 6.10305e-05 5.8228e-05);
    }
    Table_slave
    {
        type            compressible::alphatWallFunction;
        Prt             0.85;
        value           nonuniform List<scalar> 9(0.00014677 0.000143082 0.000138323 0.000135794 0.000134013 0.000131725 0.000127795 0.000121464 0.000115042);
    }
    inlet
    {
        type            fixedValue;
        value           uniform 1.94e-05;
    }
    outlet
    {
        type            zeroGradient;
    }
}


// ************************************************************************* //
