/*--------------------------------*- C++ -*----------------------------------*\
  =========                 |
  \\      /  F ield         | OpenFOAM: The Open Source CFD Toolbox
   \\    /   O peration     | Website:  https://openfoam.org
    \\  /    A nd           | Version:  6
     \\/     M anipulation  |
\*---------------------------------------------------------------------------*/
FoamFile
{
    version     2.0;
    format      ascii;
    class       volScalarField;
    location    "70";
    object      epsilon;
}
// * * * * * * * * * * * * * * * * * * * * * * * * * * * * * * * * * * * * * //

dimensions      [0 2 -3 0 0 0 0];

internalField   nonuniform List<scalar> 
459
(
0.000877643
0.00120973
0.00126956
0.00117437
0.000914361
0.000655893
0.000488987
0.000388575
0.000324248
0.000277735
0.000242414
0.000216835
0.000198327
0.000184184
0.000169915
7.21946e-05
0.000146739
0.000178883
0.000198638
0.000201635
0.00018106
0.000142723
0.000113123
9.10843e-05
7.39713e-05
6.04756e-05
4.97259e-05
4.10796e-05
3.40428e-05
2.82209e-05
2.33016e-05
1.91092e-05
1.71165e-05
1.30822e-05
0.00215554
0.00282353
0.00334722
0.00380693
0.00307758
0.00195772
0.00106876
0.000621703
0.000397279
0.000270325
0.000197921
0.000168254
0.000161336
0.000162895
0.000167671
0.000210886
8.89519e-05
0.000112328
0.000227112
0.000150071
0.000146419
0.000144129
0.00013768
0.000109649
8.52158e-05
6.9961e-05
5.72374e-05
4.64185e-05
3.75045e-05
3.02608e-05
2.43776e-05
1.96249e-05
1.59913e-05
1.45289e-05
4.61508e-05
2.88391e-05
0.00273133
0.00492537
0.00746519
0.010232
0.00975313
0.00732947
0.00430572
0.0022693
0.00115296
0.000598473
0.000315488
0.000209862
0.000180962
0.000182654
0.000196892
0.000222782
0.000272167
0.000355939
0.00028242
0.000180984
0.000151743
0.000141168
0.000141064
0.000151436
7.88875e-05
5.47633e-05
4.22569e-05
3.39911e-05
2.79105e-05
2.32759e-05
1.97496e-05
1.74556e-05
1.64055e-05
1.91053e-05
0.000133607
5.29364e-05
0.0040433
0.00535124
0.00508458
0.00517357
0.00583861
0.00613667
0.00570333
0.00480904
0.00364862
0.00157344
0.000625545
0.000314372
0.000221835
0.000204458
0.000219115
0.000264904
0.00036725
0.00055897
0.000328327
0.000196233
0.000143889
0.000120366
0.000118096
0.000147145
0.000244345
0.000226038
0.000203977
0.0001929
0.000185354
0.000175971
0.000160657
0.000138017
0.000117451
8.34741e-05
6.33969e-05
0.000300573
8.67093e-05
0.0151215
0.0127372
0.00952992
0.00708277
0.00571579
0.00516488
0.00485725
0.00443365
0.00374923
0.00271849
0.00130461
0.000519156
0.000296301
0.000231553
0.000208873
0.000196929
0.000189796
0.000181354
0.000147477
0.000116312
0.000101546
9.60091e-05
9.847e-05
0.000110954
0.000134305
0.000143546
0.000135779
0.000129672
0.00012757
0.000124402
0.000116601
0.000103041
9.05815e-05
7.94157e-05
7.16077e-05
0.000167043
0.000140977
0.00014344
0.000213909
0.000319687
0.0190299
0.0172523
0.0110113
0.00724919
0.00542326
0.0045896
0.00419352
0.00385693
0.00334617
0.0025715
0.00160827
0.00074386
0.000397491
0.000290174
0.000253017
0.000228699
0.000198592
0.000161991
0.000127709
0.000105225
9.57458e-05
9.43514e-05
9.78428e-05
0.000107574
0.000124843
0.000136716
0.000134669
0.000134892
0.000141415
0.000149176
0.000151667
0.000142278
0.000119293
9.94921e-05
8.85999e-05
0.000114803
0.000130031
0.000131553
0.000399466
0.000401324
0.0225826
0.0231939
0.0140803
0.0063608
0.00439141
0.00374932
0.00348284
0.00324952
0.00285215
0.00223451
0.00149117
0.000853369
0.000481146
0.000348245
0.000303549
0.000281243
0.000253009
0.000212609
0.000169083
0.000135735
0.00011741
0.000109214
0.000106102
0.00010951
0.000124337
0.000142053
0.000145459
0.000150204
0.000166319
0.000191071
0.000216668
0.000233026
0.00021841
0.00018694
0.000173301
0.00019412
0.000254297
0.000380082
0.00073996
0.000743174
0.0275144
0.0320311
0.024962
0.00536844
0.00342426
0.00307057
0.00290438
0.00273039
0.00239999
0.00189393
0.00131214
0.000826808
0.000532611
0.00039728
0.000343588
0.000324843
0.000306089
0.000273927
0.000232293
0.000193071
0.000164751
0.000145893
0.000130227
0.000119779
0.000130267
0.000156849
0.000172415
0.000183676
0.000208597
0.000250516
0.000310009
0.000384922
0.000468166
0.000514557
0.000623397
0.000967926
0.00175609
0.00295666
0.00741847
0.0019247
0.0357639
0.0564042
0.0652535
0.0140467
0.00328564
0.00276827
0.0025405
0.00236399
0.00206266
0.00162669
0.00116631
0.00079414
0.000557343
0.000431947
0.000374637
0.000351768
0.000337692
0.000317605
0.000288803
0.000257227
0.000229757
0.000207571
0.000180261
0.000143528
0.000141685
0.000177729
0.000214206
0.000237803
0.000268829
0.000320387
0.000404262
0.000528791
0.000698265
0.000916563
0.0011905
0.00156011
0.00195132
0.00225353
0.00249663
0.00146027
0.140482
0.0293383
0.00380931
0.00258311
0.00232549
0.00214788
0.00187901
0.00147037
0.00109249
0.000798899
0.000603056
0.000485456
0.000420393
0.00038637
0.000366894
0.000349894
0.000330412
0.000309734
0.000291899
0.000279372
0.000258489
0.000186392
0.000156185
0.000199977
0.000263703
0.000310318
0.000346984
0.000380844
0.000432431
0.000517635
0.000650187
0.000833716
0.0010518
0.00127308
0.0014141
0.00138628
0.00115094
0.000753198
0.019114
0.00339288
0.00219103
0.00209465
0.0021428
0.00207581
0.00187042
0.00148016
0.00115102
0.000904155
0.000728185
0.000607527
0.000524906
0.000467085
0.000426096
0.000395296
0.000370313
0.000348994
0.000330186
0.000310001
0.000273628
0.000205506
0.000163754
0.000217359
0.000315064
0.000360114
0.000386963
0.000416939
0.000460116
0.000531515
0.000646833
0.000811431
0.00101557
0.00123922
0.00139804
0.00147348
0.000988658
0.000790373
0.00247804
0.00372025
0.00519547
0.00176958
0.00203658
0.00244051
0.00269783
0.00273148
0.00253261
0.00203411
0.00166446
0.00136394
0.00112481
0.00093665
0.000788483
0.000673329
0.000585018
0.00051474
0.000457109
0.000408657
0.000366915
0.000329069
0.000290224
0.000246752
0.000206625
0.000200821
0.000262547
0.000296651
0.000326146
0.000359889
0.000407384
0.000477806
0.000571849
0.00069674
0.000851969
0.00107384
0.00112777
0.00103017
0.000823705
0.000639073
)
;

boundaryField
{
    floor
    {
        Cmu             0.09;
        kappa           0.41;
        E               9.8;
        type            epsilonWallFunction;
        value           nonuniform List<scalar> 
29
(
0.000169915
7.21946e-05
0.000146739
0.000178883
0.000198638
0.000201635
0.00018106
0.000142723
0.000113123
9.10843e-05
7.39713e-05
6.04756e-05
4.97259e-05
4.10796e-05
3.40428e-05
2.82209e-05
2.33016e-05
1.91092e-05
1.71165e-05
1.30822e-05
1.30822e-05
2.88391e-05
5.29364e-05
8.67093e-05
0.000169915
7.21946e-05
0.000112328
0.000355939
0.00055897
)
;
    }
    ceiling
    {
        Cmu             0.09;
        kappa           0.41;
        E               9.8;
        type            epsilonWallFunction;
        value           nonuniform List<scalar> 
43
(
0.00247804
0.00372025
0.00519547
0.00176958
0.00203658
0.00244051
0.00269783
0.00273148
0.00253261
0.00203411
0.00166446
0.00136394
0.00112481
0.00093665
0.000788483
0.000673329
0.000585018
0.00051474
0.000457109
0.000408657
0.000366915
0.000329069
0.000290224
0.000246752
0.000206625
0.000200821
0.000262547
0.000296651
0.000326146
0.000359889
0.000407384
0.000477806
0.000571849
0.00069674
0.000851969
0.00107384
0.00112777
0.00103017
0.000823705
0.000639073
0.0357639
0.0564042
0.019114
)
;
    }
    sWall
    {
        Cmu             0.09;
        kappa           0.41;
        E               9.8;
        type            epsilonWallFunction;
        value           uniform 0.00247804;
    }
    nWall
    {
        Cmu             0.09;
        kappa           0.41;
        E               9.8;
        type            epsilonWallFunction;
        value           nonuniform List<scalar> 6(0.000319687 0.000401324 0.000743174 0.000753198 0.000790373 0.000639073);
    }
    sideWalls
    {
        type            empty;
    }
    glass1
    {
        Cmu             0.09;
        kappa           0.41;
        E               9.8;
        type            epsilonWallFunction;
        value           nonuniform List<scalar> 9(0.000877643 0.00215554 0.00273133 0.0040433 0.0151215 0.0190299 0.0225826 0.0275144 0.0357639);
    }
    glass2
    {
        Cmu             0.09;
        kappa           0.41;
        E               9.8;
        type            epsilonWallFunction;
        value           nonuniform List<scalar> 2(0.0019247 0.00146027);
    }
    sun
    {
        Cmu             0.09;
        kappa           0.41;
        E               9.8;
        type            epsilonWallFunction;
        value           nonuniform List<scalar> 
14
(
0.000877643
0.00120973
0.00126956
0.00117437
0.000914361
0.000655893
0.000488987
0.000388575
0.000324248
0.000277735
0.000242414
0.000216835
0.000198327
0.000184184
)
;
    }
    heatsource1
    {
        Cmu             0.09;
        kappa           0.41;
        E               9.8;
        type            epsilonWallFunction;
        value           nonuniform List<scalar> 3(0.00014344 0.000213909 0.000319687);
    }
    heatsource2
    {
        Cmu             0.09;
        kappa           0.41;
        E               9.8;
        type            epsilonWallFunction;
        value           nonuniform List<scalar> 4(0.000210886 8.89519e-05 8.89519e-05 0.000272167);
    }
    Table_master
    {
        Cmu             0.09;
        kappa           0.41;
        E               9.8;
        type            epsilonWallFunction;
        value           nonuniform List<scalar> 9(0.000151436 7.88875e-05 5.47633e-05 4.22569e-05 3.39911e-05 2.79105e-05 2.32759e-05 1.97496e-05 1.74556e-05);
    }
    Table_slave
    {
        Cmu             0.09;
        kappa           0.41;
        E               9.8;
        type            epsilonWallFunction;
        value           nonuniform List<scalar> 9(0.000244345 0.000226038 0.000203977 0.0001929 0.000185354 0.000175971 0.000160657 0.000138017 0.000117451);
    }
    inlet
    {
        type            turbulentMixingLengthDissipationRateInlet;
        mixingLength    0.01;
        phi             phi;
        k               k;
        value           uniform 3.77336e-06;
    }
    outlet
    {
        type            zeroGradient;
    }
}


// ************************************************************************* //
