/*--------------------------------*- C++ -*----------------------------------*\
  =========                 |
  \\      /  F ield         | OpenFOAM: The Open Source CFD Toolbox
   \\    /   O peration     | Website:  https://openfoam.org
    \\  /    A nd           | Version:  6
     \\/     M anipulation  |
\*---------------------------------------------------------------------------*/
FoamFile
{
    version     2.0;
    format      ascii;
    class       volScalarField;
    location    "70";
    object      nut;
}
// * * * * * * * * * * * * * * * * * * * * * * * * * * * * * * * * * * * * * //

dimensions      [0 2 -1 0 0 0 0];

internalField   nonuniform List<scalar> 
459
(
0.00135382
0.00150674
0.00153132
0.0014921
0.00137258
0.00122862
0.001114
0.00103179
0.000971352
0.000922438
0.000881484
0.000849256
0.000824311
0.000804174
0.000782788
0.000588668
0.000745641
0.000796333
0.000824548
0.000828663
0.000799448
0.00073848
0.000683434
0.000635818
0.000593214
0.000554698
0.000519674
0.000487628
0.000458036
0.000430291
0.000403693
0.000377889
0.000364315
0.000333115
0.00182646
0.00581228
0.00705738
0.0076678
0.00725812
0.00628238
0.00534944
0.00461583
0.00416005
0.00390212
0.00369123
0.00335426
0.00289881
0.00234169
0.0016438
0.000841173
0.000630929
0.000682121
0.00286436
0.00341813
0.00351059
0.00316983
0.00254345
0.00194848
0.00173165
0.00156278
0.00141237
0.00127563
0.00115296
0.00104153
0.000936796
0.000834344
0.000741742
0.000677338
0.000860414
0.000433564
0.0019757
0.00673708
0.00777196
0.00962161
0.0100327
0.00953941
0.00869492
0.0074398
0.00616887
0.0053118
0.00493368
0.00457363
0.00393583
0.00312876
0.00227968
0.00151665
0.000915747
0.00100154
0.00391116
0.00425083
0.00388846
0.00313308
0.00207626
0.000752849
0.000605734
0.000536454
0.00049211
0.000457702
0.000428617
0.000403454
0.000381961
0.000366571
0.000478346
0.00058539
0.00115897
0.000530934
0.00225412
0.00291291
0.00336391
0.00420487
0.00568509
0.00708187
0.0079925
0.00832634
0.0081681
0.00714372
0.00616518
0.00578433
0.00522609
0.0042983
0.00321677
0.00220181
0.00147921
0.00116414
0.00278259
0.0040326
0.00398355
0.00336685
0.00257093
0.0016435
0.000883607
0.000861242
0.000832261
0.000816891
0.000806095
0.000792266
0.000768597
0.000730632
0.00069237
0.000734197
0.000790946
0.00150202
0.000625901
0.00349613
0.00403084
0.00396373
0.00389448
0.00428711
0.00520927
0.00634785
0.00735446
0.00798994
0.00796107
0.00736445
0.00698962
0.00683135
0.00637559
0.00571706
0.00500571
0.00437397
0.00396283
0.00386636
0.00387682
0.00354911
0.00319947
0.00300705
0.00303042
0.00324925
0.00355416
0.0037061
0.00371843
0.00369399
0.0036232
0.00348711
0.00324166
0.00274873
0.00224158
0.00177847
0.00154614
0.00112236
0.000740127
0.00084549
0.000966663
0.00377441
0.0049473
0.00476589
0.00438139
0.00435683
0.00484712
0.00574735
0.00676976
0.00758644
0.00789871
0.0077231
0.00769446
0.00776351
0.00765055
0.00727414
0.00672091
0.00602423
0.00524695
0.00449876
0.00384249
0.00331999
0.00297314
0.00281806
0.0028932
0.00321528
0.00365878
0.00400603
0.00416935
0.00421848
0.0042022
0.00413639
0.00402467
0.00376829
0.00331751
0.002755
0.00202411
0.00160563
0.00129741
0.00166666
0.00104282
0.00399598
0.00549167
0.00529752
0.00448946
0.00442907
0.00480391
0.00558424
0.00653726
0.00733615
0.00770742
0.00764991
0.00757125
0.00790767
0.00813693
0.00804469
0.007692
0.00709031
0.00626813
0.00531497
0.00437679
0.00358921
0.00299598
0.00261175
0.00249192
0.00271099
0.00320179
0.00367126
0.00389427
0.00398376
0.00400556
0.00400381
0.00400742
0.00401783
0.00381589
0.00337465
0.00279732
0.00235517
0.00219452
0.00213684
0.00128055
0.00426791
0.00532967
0.00531057
0.00464478
0.00472828
0.00502682
0.00571769
0.00657744
0.0072737
0.00759133
0.00753692
0.00739471
0.00749281
0.00783805
0.00810278
0.00803258
0.0076604
0.00702571
0.00618635
0.00524112
0.00429501
0.00341201
0.0026793
0.00222599
0.00225872
0.00275776
0.00338159
0.0036584
0.00372808
0.0037315
0.00375166
0.00383892
0.00402327
0.00426809
0.0040754
0.00399055
0.00422002
0.00461731
0.00512635
0.00175848
0.00465778
0.00542164
0.00718345
0.00500544
0.00525012
0.00573533
0.00616493
0.00682147
0.0074147
0.00764299
0.00753814
0.00731948
0.00721332
0.00731027
0.00752586
0.0076094
0.00746722
0.00708881
0.00651355
0.00580766
0.0050167
0.00409726
0.00308589
0.00217702
0.00190443
0.00234546
0.00316301
0.00357296
0.00361209
0.00350611
0.00338889
0.00330899
0.00325818
0.00321723
0.00317708
0.00311844
0.00297484
0.0027205
0.00246167
0.00160384
0.0101109
0.00556606
0.00547408
0.00660053
0.00686514
0.00728475
0.00769124
0.00779851
0.00756412
0.00721726
0.00690934
0.00671872
0.00664137
0.00659771
0.00648432
0.0062614
0.00592603
0.0055044
0.0050202
0.00444626
0.00366044
0.00236079
0.00162134
0.00190771
0.00283636
0.00350289
0.00365783
0.00355064
0.00339102
0.00327703
0.00323212
0.00321498
0.00316623
0.00304518
0.00280616
0.00245453
0.00204292
0.00128632
0.00378021
0.00377186
0.00588216
0.00650767
0.00684092
0.00712059
0.00728965
0.0071564
0.00671731
0.00622041
0.00575532
0.00537189
0.00507581
0.00484142
0.00462257
0.00442072
0.00422451
0.00402601
0.00381745
0.00355717
0.00310604
0.002248
0.00136661
0.0014418
0.00223112
0.00291075
0.00318929
0.00326458
0.00326129
0.00324538
0.00328719
0.00335472
0.0033974
0.00338682
0.00328089
0.00310681
0.00259815
0.00130715
0.00191318
0.00219073
0.00244878
0.00170994
0.00179192
0.00190331
0.00196799
0.00197617
0.00192705
0.00179123
0.00167536
0.00156774
0.00147015
0.00138311
0.00130595
0.00123899
0.00118227
0.0011329
0.00108894
0.00104903
0.00101205
0.000976021
0.000936081
0.000886879
0.000835926
0.000827385
0.000904986
0.00094271
0.000973009
0.00100548
0.0010479
0.00110512
0.00117336
0.00125326
0.0013402
0.00144778
0.00147158
0.00142783
0.00132526
0.00121776
)
;

boundaryField
{
    floor
    {
        type            nutkWallFunction;
        Cmu             0.09;
        kappa           0.41;
        E               9.8;
        value           nonuniform List<scalar> 
29
(
9.48374e-05
7.09388e-05
9.03103e-05
9.64744e-05
9.98832e-05
0.000100379
9.686e-05
8.94653e-05
8.27241e-05
7.68406e-05
7.15311e-05
6.6691e-05
6.22537e-05
5.81609e-05
5.43516e-05
5.07516e-05
4.72726e-05
4.38686e-05
4.20627e-05
3.78869e-05
3.78868e-05
5.1162e-05
6.36542e-05
7.55685e-05
9.48374e-05
7.09388e-05
8.25357e-05
0.000120928
0.000139888
)
;
    }
    ceiling
    {
        type            nutkWallFunction;
        Cmu             0.09;
        kappa           0.41;
        E               9.8;
        value           nonuniform List<scalar> 
43
(
0.000223941
0.000254094
0.00028177
0.000201566
0.000210631
0.000222874
0.000229945
0.000230834
0.00022546
0.000210545
0.000197725
0.000185731
0.000174777
0.000164939
0.000156159
0.000148494
0.000141964
0.00013625
0.00013114
0.000126479
0.00012214
0.000117895
0.000113165
0.000107307
0.00010121
0.000100241
0.0001095
0.000113967
0.000117546
0.00012137
0.000126344
0.000133017
0.000140923
0.000150114
0.000160042
0.000172223
0.00017491
0.000169976
0.000158337
0.000146032
0.000509044
0.000584748
0.000420406
)
;
    }
    sWall
    {
        type            nutkWallFunction;
        Cmu             0.09;
        kappa           0.41;
        E               9.8;
        value           uniform 0.000223997;
    }
    nWall
    {
        type            nutkWallFunction;
        Cmu             0.09;
        kappa           0.41;
        E               9.8;
        value           nonuniform List<scalar> 6(0.000116791 0.000125742 0.000153243 0.000153907 0.000156285 0.000146044);
    }
    sideWalls
    {
        type            empty;
    }
    glass1
    {
        type            nutkWallFunction;
        Cmu             0.09;
        kappa           0.41;
        E               9.8;
        value           nonuniform List<scalar> 9(0.000161772 0.00021471 0.000231156 0.00026119 0.000391945 0.000420481 0.000443041 0.000470554 0.000509696);
    }
    glass2
    {
        type            nutkWallFunction;
        Cmu             0.09;
        kappa           0.41;
        E               9.8;
        value           nonuniform List<scalar> 2(0.000207027 0.00018985);
    }
    sun
    {
        type            nutkWallFunction;
        Cmu             0.09;
        kappa           0.41;
        E               9.8;
        value           nonuniform List<scalar> 
14
(
0.000161574
0.000178837
0.000181583
0.000177175
0.000163685
0.000147256
0.000134021
0.000124434
0.00011733
0.000111545
0.000106676
0.000102827
9.98374e-05
9.74166e-05
)
;
    }
    heatsource1
    {
        type            nutkWallFunction;
        Cmu             0.09;
        kappa           0.41;
        E               9.8;
        value           nonuniform List<scalar> 3(8.9629e-05 0.000102368 0.000116783);
    }
    heatsource2
    {
        type            nutkWallFunction;
        Cmu             0.09;
        kappa           0.41;
        E               9.8;
        value           nonuniform List<scalar> 4(0.000101879 7.62266e-05 7.62266e-05 0.000110791);
    }
    Table_master
    {
        type            nutkWallFunction;
        Cmu             0.09;
        kappa           0.41;
        E               9.8;
        value           nonuniform List<scalar> 9(9.12482e-05 7.31323e-05 6.44105e-05 5.87573e-05 5.43296e-05 5.05555e-05 4.72648e-05 4.44338e-05 4.23935e-05);
    }
    Table_slave
    {
        type            nutkWallFunction;
        Cmu             0.09;
        kappa           0.41;
        E               9.8;
        value           nonuniform List<scalar> 9(0.000106947 0.000104249 0.000100774 9.89282e-05 9.76276e-05 9.59576e-05 9.30915e-05 8.8476e-05 8.37943e-05);
    }
    inlet
    {
        type            calculated;
        value           uniform 3.3541e-05;
    }
    outlet
    {
        type            calculated;
        value           nonuniform List<scalar> 2(0.00191318 0.00219073);
    }
}


// ************************************************************************* //
