/*--------------------------------*- C++ -*----------------------------------*\
  =========                 |
  \\      /  F ield         | OpenFOAM: The Open Source CFD Toolbox
   \\    /   O peration     | Website:  https://openfoam.org
    \\  /    A nd           | Version:  6
     \\/     M anipulation  |
\*---------------------------------------------------------------------------*/
FoamFile
{
    version     2.0;
    format      ascii;
    class       surfaceScalarField;
    location    "70";
    object      phi;
}
// * * * * * * * * * * * * * * * * * * * * * * * * * * * * * * * * * * * * * //

dimensions      [1 0 -1 0 0 0 0];

internalField   nonuniform List<scalar> 
852
(
-0.00335566
0.0034146
-0.00435258
0.000997093
-0.00459013
0.000237726
-0.00457736
-1.25927e-05
-0.0045379
-3.92911e-05
-0.00446329
-7.44425e-05
-0.00430065
-0.000162474
-0.00403543
-0.000265045
-0.00366437
-0.000370887
-0.00320389
-0.000460305
-0.00268682
-0.000516895
-0.00213725
-0.000549403
-0.00154646
-0.000590616
-0.000847707
-0.000698589
-0.000844194
-0.000586979
0.000591242
-0.000450621
-0.00013627
-8.85199e-05
-0.000361979
0.000376566
-0.000464938
0.000953095
-0.000576365
0.00146037
-0.000507113
0.00157817
-0.000117648
0.00154396
3.43403e-05
0.00148279
6.1281e-05
0.00141848
6.44031e-05
0.00135786
6.06922e-05
0.00130408
5.38338e-05
0.0012559
4.82145e-05
0.0012085
4.74325e-05
0.00115134
5.71917e-05
0.00107412
7.72378e-05
0.000972619
0.000101515
0.00082753
0.000145102
0.000833664
-0.00212146
0.00569223
-0.00241339
0.00128926
-0.00225111
7.57015e-05
-0.00216979
-9.36404e-05
-0.00252895
0.000320114
-0.00301671
0.000413547
-0.003344
0.000165039
-0.00343263
-0.000176206
-0.00332587
-0.000477448
-0.00306031
-0.000725662
-0.00270752
-0.000869489
-0.00229787
-0.000958866
-0.00182514
-0.00106315
-0.00131766
-0.0012059
-0.000837883
-0.0013238
0.000299499
-0.00113728
0.00029959
0.000196977
0.00040571
-0.000120884
0.000181697
-0.000242279
-0.00024044
-3.76379e-05
-0.000669415
0.000397578
-0.0010114
0.000870987
-0.000980342
0.000955025
-0.000201537
0.000944488
4.50008e-05
0.000929562
7.63045e-05
0.000919
7.50407e-05
0.00091354
6.62091e-05
0.00091069
5.6725e-05
0.000908771
5.01637e-05
0.000907234
4.89914e-05
0.000889267
7.51732e-05
0.000831495
0.000135021
0.000721882
0.000211135
0.000564035
0.000302955
0.00141336
-0.000503651
0.00644188
0.000893318
-0.000107168
0.00217923
-0.00120984
0.00202421
6.17054e-05
0.00125864
0.00108598
0.000216441
0.00145603
-0.000918838
0.00130062
-0.00188715
0.000792371
-0.00245275
8.83972e-05
-0.00255584
-0.000622355
-0.0025217
-0.000903428
-0.00240592
-0.00107446
-0.00224014
-0.00122875
-0.00204971
-0.00139616
-0.00185676
-0.00151659
-0.00152546
-0.00146843
-0.00122575
-0.000713641
0.00113367
-0.000866763
0.000334956
-0.000866471
-0.000240579
-0.000736394
-0.000799327
-0.00045712
-0.0012905
0.000333552
-0.00177083
0.000132285
0.000177503
0.000254011
0.000329244
0.000395637
0.000452538
0.000502872
0.000552031
0.00062737
0.000627657
0.000134752
0.00051924
0.000319569
0.000369088
0.000453126
0.00180532
0.0080437
-0.00128712
0.0108109
-0.00287401
0.010558
-0.000956557
0.00928758
0.00133255
0.00753841
0.00283553
0.00558885
0.00340592
0.00361866
0.00327109
0.00172218
0.00268911
-5.83949e-05
0.00186927
-0.00138949
0.000708983
-0.00200023
-0.000292489
-0.00227429
-0.000800212
-0.00246778
-0.00103509
-0.00265391
-0.00120987
-0.00285513
-0.00131522
-0.0030437
-0.00127973
-0.00336253
-0.000906796
-0.00295673
-0.000391089
-0.00203434
0.000211396
-0.00177288
7.36274e-05
-0.00159877
-0.000414538
-0.00146896
-0.00092899
-0.00140095
-0.00135834
-0.00167673
-0.00149489
-0.000586342
-0.00109036
0.000229744
-0.000816049
0.000821994
-0.000592239
0.00129801
-0.000476009
0.00169274
-0.000394738
0.00199807
-0.000305336
0.00217747
-0.00017942
0.00217363
3.81561e-06
0.00193574
0.000237863
0.00153934
0.000531271
0.000982792
0.000876215
0.000206486
0.0012295
0.00204039
0.00875903
-0.00972617
0.0113483
-0.00546322
0.0111597
-0.000768037
0.010174
0.0023183
0.00879528
0.00421439
0.0071111
0.00509024
0.00528311
0.00509923
0.00348888
0.0044835
0.00185373
0.00350461
0.000253418
0.00230949
-0.00100094
0.000962079
-0.00170658
-9.44048e-05
-0.0021237
-0.000617807
-0.0024516
-0.000881811
-0.00274522
-0.00102146
-0.00300607
-0.00101874
-0.00310312
-0.000809623
-0.003005
-0.000489106
-0.00255016
-0.000243337
-0.00213863
-0.000337792
-0.00187441
-0.000678618
-0.00169749
-0.00110576
-0.00155825
-0.00149741
-0.00134897
-0.00170399
-0.000779865
-0.00165929
-0.000147368
-0.00144838
0.000392146
-0.0011316
0.000831643
-0.000915373
0.00120639
-0.000769362
0.00151894
-0.000617761
0.00175149
-0.000411854
0.00186591
-0.000110487
0.00182994
0.000273946
0.00166052
0.000700802
0.0013663
0.00117053
0.000828033
0.00176784
0.000658681
0.00220978
-0.000851156
0.00150967
-0.00140761
0.00055628
-0.001349
0.00416043
-0.0135067
0.00548297
-0.00678571
0.00605064
-0.00133565
0.00600778
0.00236123
0.00568723
0.00453503
0.00503126
0.00574631
0.00412235
0.00600825
0.00309695
0.00550903
0.00205255
0.00454916
0.00102749
0.00333471
-1.45281e-05
0.00200425
-0.000869557
0.000760769
-0.0014133
-7.3916e-05
-0.00178192
-0.000513054
-0.00207723
-0.000726002
-0.00231203
-0.000783808
-0.00242062
-0.0007009
-0.00236319
-0.00054641
-0.00214614
-0.000460265
-0.00192377
-0.000560026
-0.00176914
-0.000833108
-0.00166419
-0.00121055
-0.00155119
-0.00161025
-0.00132162
-0.00193337
-0.000899926
-0.0020808
-0.000421511
-0.00192663
-2.71807e-06
-0.00155027
0.000361155
-0.00127914
0.000683681
-0.00109179
0.000981
-0.000914981
0.00125498
-0.000685739
0.00148318
-0.000338586
0.00162005
0.000137171
0.00168302
0.00063793
0.00173936
0.00111428
0.0018728
0.00163449
0.00225741
0.00182523
0.00252373
0.00124339
0.00209169
0.000988366
0.000811332
-0.000139749
-0.012924
0.000642703
-0.00756802
0.00188335
-0.00257615
0.00188529
0.00235941
0.00214576
0.00427468
0.00226528
0.00562689
0.00218073
0.00609291
0.00193037
0.00575949
0.00156155
0.0049181
0.00112194
0.00377446
0.000607891
0.00251843
1.74866e-05
0.00135128
-0.000504588
0.000448268
-0.000891009
-0.000126511
-0.00116431
-0.000452573
-0.00136326
-0.000584734
-0.00147339
-0.000590641
-0.00147936
-0.000540313
-0.00141644
-0.000523065
-0.0013621
-0.000614234
-0.00135992
-0.000835145
-0.00139528
-0.00117502
-0.00140702
-0.00159831
-0.00129803
-0.00204215
-0.00100647
-0.00237214
-0.000637132
-0.00229581
-0.000367779
-0.00181951
-0.00015079
-0.00149604
5.26239e-05
-0.00129512
0.000266246
-0.00112852
0.000513562
-0.000932971
0.000809629
-0.000634567
0.00110638
-0.000159489
0.00137687
0.000367528
0.00167482
0.00081641
0.00212282
0.00118657
0.00277818
0.00116992
0.00336382
0.000657807
0.00331299
0.00103924
0.00419395
-0.00292179
-0.00949978
-0.00417824
-0.00631142
-0.00317852
-0.00357572
-0.00233273
0.00151377
-0.00122457
0.00316664
-0.000298378
0.00470081
0.000343887
0.00545075
0.00072669
0.00537679
0.000926602
0.00471831
0.00100461
0.00369656
0.000944726
0.00257841
0.000745378
0.00155072
0.000451614
0.000742116
0.000146336
0.00017886
-0.000113082
-0.000193052
-0.000303602
-0.000394104
-0.000422884
-0.000471245
-0.000478329
-0.000484751
-0.000504761
-0.000496512
-0.000559028
-0.000559837
-0.000684242
-0.000709788
-0.000878283
-0.000980813
-0.00108079
-0.00139561
-0.0011766
-0.0019461
-0.00105426
-0.00249422
-0.000787624
-0.00256224
-0.000672187
-0.00193485
-0.000659467
-0.00150869
-0.000675221
-0.00127929
-0.000680706
-0.00112297
-0.000640413
-0.000973189
-0.00049919
-0.000775709
-0.000180568
-0.000478028
0.000194484
-7.44843e-06
0.000533637
0.000477327
0.000914127
0.00080614
0.00126554
0.000818562
0.00139241
0.000530995
0.000683825
0.00174787
0.00520955
-0.00894303
-0.015252
-0.0101893
-0.00863832
-0.00611881
-0.00255657
-0.00387632
0.000924262
-0.00233005
0.00315464
-0.0011413
0.00426211
-0.000245891
0.00448149
0.000408748
0.00406379
0.000906674
0.00319873
0.00121504
0.00227012
0.00133021
0.00143562
0.00129337
0.000779023
0.00116097
0.000311336
0.000981671
-1.36706e-05
0.000808831
-0.000221173
0.000669166
-0.000331483
0.000566435
-0.000381915
0.000480993
-0.000410957
0.000372056
-0.00045078
0.000187513
-0.000525111
-0.000116579
-0.000676558
-0.000525356
-0.000986633
-0.000897908
-0.00157329
-0.00100303
-0.00238878
-0.000822214
-0.00274278
-0.000853689
-0.00190327
-0.00109299
-0.00126931
-0.00141125
-0.000960972
-0.00177753
-0.000756624
-0.00220261
-0.000548044
-0.00270613
-0.000272118
-0.0033001
0.00011602
-0.00394625
0.000638768
-0.00475466
0.0012858
-0.00591486
0.0019664
-0.00755406
0.00245782
-0.00946228
0.00243926
-0.00873845
0.00102408
-0.00315799
-0.00846388
0.000412103
-0.00674068
-0.00427966
-0.00506272
-0.000753603
-0.00354077
0.0016328
-0.00212847
0.00284991
-0.000891301
0.00324442
0.000118168
0.00305442
0.000949156
0.00236782
0.00153727
0.00168208
0.00188761
0.00108533
0.00204673
0.000619964
0.00207171
0.000286428
0.00199982
5.82844e-05
0.00187248
-9.37466e-05
0.00173272
-0.000191642
0.00159949
-0.000248586
0.00147056
-0.000281925
0.00132646
-0.000306575
0.00113423
-0.000332757
0.000835988
-0.000378174
0.000348882
-0.000499363
-0.000306652
-0.000917499
-0.000762348
-0.0019327
-0.00074837
-0.00275633
-0.000877009
-0.00177452
-0.00127266
-0.000873601
-0.00172944
-0.000504148
-0.00217609
-0.000309916
-0.00258103
-0.000143052
-0.00291053
5.74442e-05
-0.00317335
0.000378906
-0.0033955
0.000860977
-0.00359358
0.00148394
-0.00372682
0.00209969
-0.00369888
0.00242992
-0.00329256
0.00203299
-0.00187556
-0.000392882
-0.0049392
-0.00179745
0.0022127
-0.00451575
-0.00156126
-0.00487602
-0.000393233
-0.00401127
0.000768141
-0.00264716
0.00148589
-0.00119069
0.00178805
0.000133432
0.0017304
0.00122086
0.00128047
0.00199719
0.000905807
0.00249689
0.000585698
0.00277501
0.000341907
0.00289291
0.000168598
0.0028988
5.24627e-05
0.00283406
-2.8928e-05
0.00272933
-8.68375e-05
0.00260354
-0.000122708
0.002465
-0.000143291
0.00231156
-0.000153032
0.00213168
-0.00015276
0.00189957
-0.000145935
0.00156156
-0.000161217
0.000976331
-0.000332107
5.38324e-05
-0.00100975
-0.000698198
-0.00200364
-0.00111233
-0.00136027
-0.00146256
-0.000523322
-0.00174657
-0.000220091
-0.00197033
-8.61061e-05
-0.00213737
2.40245e-05
-0.00222445
0.000144578
-0.00216919
0.00032369
-0.00193605
0.000627889
-0.00152908
0.00107702
-0.000951732
0.00152239
5.5039e-05
0.00142319
0.00137102
0.000717043
0.00161552
-0.000637342
-0.0032202
-0.00318422
-0.00549791
-0.00328064
-0.00483719
-0.00522595
-0.00445352
-0.00296326
-0.00117048
0.000565387
0.00185248
0.00276572
0.00335959
0.00371034
0.00388843
0.003951
0.00393277
0.00385721
0.00374636
0.00361551
0.00347552
0.00333642
0.00320482
0.0030587
0.00274269
0.00175074
-0.000229582
-0.00156398
-0.00206209
-0.00225756
-0.00231966
-0.00227237
-0.00210545
-0.00176042
-0.00111228
-1.60646e-05
0.00152418
0.00296479
0.0036995
0.00308082
)
;

boundaryField
{
    floor
    {
        type            calculated;
        value           nonuniform List<scalar> 
29
(
0
0
0
0
0
0
0
0
0
0
0
0
0
0
0
0
0
0
0
0
-6.1213e-06
-1.56483e-05
-2.28487e-05
-2.85543e-05
-3.34998e-06
-4.21191e-06
-1.13878e-05
-1.42028e-05
-1.45981e-05
)
;
    }
    ceiling
    {
        type            calculated;
        value           nonuniform List<scalar> 
43
(
-4.30817e-06
-4.85965e-06
-4.48077e-06
-4.61942e-06
-4.37733e-06
-4.20039e-06
-4.27334e-06
-4.64675e-06
-5.3734e-06
-6.54621e-06
-7.36524e-06
-8.09962e-06
-8.77946e-06
-9.41856e-06
-1.0029e-05
-1.06194e-05
-1.11952e-05
-1.17681e-05
-1.23468e-05
-1.294e-05
-1.35573e-05
-1.42189e-05
-1.49802e-05
-1.59534e-05
-1.75121e-05
-2.23182e-05
-2.57956e-05
-2.51671e-05
-2.45746e-05
-2.39657e-05
-2.32248e-05
-2.23027e-05
-2.12924e-05
-2.02158e-05
-1.91463e-05
-1.78058e-05
-1.73679e-05
-1.76326e-05
-1.86176e-05
-1.92203e-05
-1.1511e-06
-2.31391e-06
-3.03809e-06
)
;
    }
    sWall
    {
        type            calculated;
        value           uniform -0.000205789;
    }
    nWall
    {
        type            calculated;
        value           nonuniform List<scalar> 6(-5.87806e-05 -6.85993e-05 -6.95815e-05 -9.43106e-05 -0.00010344 -0.000120122);
    }
    sideWalls
    {
        type            empty;
        value           nonuniform 0();
    }
    glass1
    {
        type            calculated;
        value           nonuniform List<scalar> 9(-5.87912e-05 -0.000155996 -0.000245718 -0.000314212 -0.000319905 -0.000379797 -0.000442823 -0.000502315 -0.000555469);
    }
    glass2
    {
        type            calculated;
        value           nonuniform List<scalar> 2(-0.000331734 -0.000370867);
    }
    sun
    {
        type            calculated;
        value           uniform 0;
    }
    heatsource1
    {
        type            calculated;
        value           nonuniform List<scalar> 3(2.06124e-07 2.06079e-07 2.06095e-07);
    }
    heatsource2
    {
        type            calculated;
        value           nonuniform List<scalar> 4(5.15404e-08 5.1683e-08 0 0);
    }
    Table_master
    {
        type            calculated;
        value           nonuniform List<scalar> 9(-1.54936e-07 -1.55107e-07 -1.55131e-07 -1.55134e-07 -1.55129e-07 -1.55122e-07 -1.55114e-07 -1.55103e-07 -1.55079e-07);
    }
    Table_slave
    {
        type            calculated;
        value           nonuniform List<scalar> 9(1.54361e-07 1.54686e-07 1.54705e-07 1.54561e-07 1.54443e-07 1.54355e-07 1.54313e-07 1.54335e-07 1.54363e-07);
    }
    inlet
    {
        type            calculated;
        value           uniform -0.000586418;
    }
    outlet
    {
        type            calculated;
        value           nonuniform List<scalar> 2(0.00339443 0.00231866);
    }
}


// ************************************************************************* //
