/*--------------------------------*- C++ -*----------------------------------*\
  =========                 |
  \\      /  F ield         | OpenFOAM: The Open Source CFD Toolbox
   \\    /   O peration     | Website:  https://openfoam.org
    \\  /    A nd           | Version:  6
     \\/     M anipulation  |
\*---------------------------------------------------------------------------*/
FoamFile
{
    version     2.0;
    format      ascii;
    class       volScalarField;
    location    "70";
    object      T;
}
// * * * * * * * * * * * * * * * * * * * * * * * * * * * * * * * * * * * * * //

dimensions      [0 0 0 1 0 0 0];

internalField   nonuniform List<scalar> 
459
(
302.279
302.025
302
301.974
301.945
301.922
301.907
301.896
301.889
301.882
301.877
301.873
301.871
301.87
301.873
301.783
301.761
301.769
301.787
301.795
301.79
301.772
301.755
301.741
301.73
301.722
301.717
301.715
301.715
301.716
301.72
301.725
301.732
301.76
302.541
302.28
302.31
302.286
302.206
302.122
302.054
302.01
301.979
301.956
301.938
301.925
301.916
301.907
301.893
301.872
301.783
301.786
301.778
301.802
301.829
301.842
301.832
301.787
301.749
301.72
301.699
301.685
301.676
301.671
301.669
301.669
301.672
301.678
301.689
301.741
302.862
302.588
302.778
302.711
302.615
302.499
302.355
302.229
302.129
302.061
302.013
301.987
301.972
301.957
301.936
301.909
301.878
301.815
301.831
301.862
301.887
301.895
301.884
301.8
301.724
301.687
301.668
301.657
301.651
301.648
301.647
301.647
301.655
301.662
301.676
301.735
303.309
303.312
303.289
303.237
303.123
302.973
302.808
302.647
302.481
302.229
302.107
302.055
302.032
302.015
301.993
301.963
301.928
301.9
301.879
301.908
301.938
301.95
301.945
301.923
301.899
301.87
301.849
301.837
301.827
301.818
301.807
301.793
301.779
301.752
301.72
301.698
301.737
303.729
303.485
303.441
303.401
303.323
303.205
303.056
302.889
302.707
302.496
302.258
302.137
302.101
302.087
302.073
302.055
302.034
302.014
302.002
302.01
302.018
302.016
302.002
301.977
301.949
301.921
301.899
301.886
301.876
301.866
301.853
301.836
301.815
301.788
301.753
301.72
301.728
301.775
301.832
301.849
303.541
303.122
303.091
303.177
303.231
303.209
303.119
302.983
302.814
302.617
302.408
302.24
302.176
302.158
302.149
302.138
302.125
302.112
302.103
302.099
302.095
302.083
302.061
302.029
301.991
301.955
301.933
301.919
301.909
301.899
301.887
301.869
301.844
301.815
301.781
301.745
301.733
301.747
301.762
301.799
303.376
302.835
302.885
303.048
303.166
303.186
303.125
303.008
302.854
302.675
302.493
302.348
302.265
302.234
302.225
302.218
302.209
302.199
302.19
302.182
302.172
302.154
302.125
302.084
302.033
301.983
301.956
301.944
301.935
301.927
301.916
301.899
301.873
301.841
301.808
301.775
301.757
301.757
301.765
301.796
303.195
302.777
302.85
303.066
303.149
303.165
303.108
302.999
302.858
302.7
302.547
302.43
302.359
302.323
302.304
302.296
302.288
302.28
302.271
302.261
302.249
302.228
302.195
302.146
302.081
302.008
301.974
301.962
301.955
301.95
301.942
301.932
301.914
301.877
301.849
301.828
301.823
301.839
301.86
302.029
303.033
302.691
302.677
303.038
303.117
303.12
303.071
302.976
302.846
302.708
302.588
302.499
302.443
302.411
302.39
302.377
302.367
302.357
302.347
302.336
302.324
302.304
302.272
302.221
302.143
302.036
301.989
301.977
301.974
301.972
301.972
301.973
301.978
301.988
302.002
302.031
302.074
302.117
302.147
302.22
302.257
302.946
303.039
303.052
303.014
302.939
302.832
302.713
302.624
302.561
302.519
302.492
302.474
302.458
302.444
302.432
302.42
302.407
302.393
302.376
302.354
302.311
302.228
302.075
302.004
301.992
301.991
301.995
302.002
302.009
302.019
302.029
302.046
302.07
302.1
302.126
302.141
302.156
302.694
302.929
302.965
302.974
302.95
302.897
302.818
302.721
302.659
302.616
302.585
302.564
302.548
302.533
302.519
302.506
302.492
302.478
302.463
302.446
302.428
302.407
302.352
302.134
302.02
302.006
302.005
302.009
302.014
302.021
302.029
302.039
302.052
302.071
302.092
302.112
302.105
302.136
302.893
302.805
302.805
302.895
302.902
302.901
302.888
302.856
302.804
302.735
302.697
302.671
302.651
302.635
302.622
302.611
302.599
302.587
302.574
302.561
302.547
302.533
302.517
302.5
302.462
302.258
302.04
302.033
302.033
302.034
302.036
302.038
302.04
302.045
302.051
302.067
302.078
302.085
302.087
302.124
)
;

boundaryField
{
    floor
    {
        type            wallHeatTransfer;
        Tinf            uniform 305.2;
        alphaWall       uniform 0.24;
        value           nonuniform List<scalar> 
29
(
302.318
302.341
302.237
302.222
302.226
302.231
302.238
302.249
302.262
302.277
302.293
302.313
302.336
302.361
302.388
302.418
302.45
302.485
302.507
302.572
302.572
302.434
302.342
302.279
302.318
302.341
302.289
302.192
302.228
)
;
    }
    ceiling
    {
        type            wallHeatTransfer;
        Tinf            uniform 303.2;
        alphaWall       uniform 0.24;
        value           nonuniform List<scalar> 
43
(
302.914
302.828
302.827
302.917
302.923
302.922
302.908
302.879
302.83
302.768
302.735
302.712
302.696
302.684
302.675
302.667
302.658
302.649
302.64
302.63
302.62
302.609
302.597
302.585
302.556
302.378
302.179
302.169
302.166
302.164
302.161
302.158
302.155
302.153
302.153
302.162
302.171
302.18
302.187
302.227
303.038
302.706
302.714
)
;
    }
    sWall
    {
        type            wallHeatTransfer;
        Tinf            uniform 315.2;
        alphaWall       uniform 0.36;
        value           uniform 304.101;
    }
    nWall
    {
        type            wallHeatTransfer;
        Tinf            uniform 307.2;
        alphaWall       uniform 0.36;
        value           nonuniform List<scalar> 6(302.718 302.631 302.513 302.823 302.798 302.823);
    }
    sideWalls
    {
        type            empty;
    }
    glass1
    {
        type            wallHeatTransfer;
        Tinf            uniform 315.2;
        alphaWall       uniform 4.3;
        value           nonuniform List<scalar> 9(310.553 309.869 309.798 309.66 308.754 308.454 308.212 307.936 307.614);
    }
    glass2
    {
        type            wallHeatTransfer;
        Tinf            uniform 307.2;
        alphaWall       uniform 4.3;
        value           nonuniform List<scalar> 2(305.046 305.222);
    }
    sun
    {
        type            wallHeatTransfer;
        Tinf            uniform 305.2;
        alphaWall       uniform 0.24;
        value           nonuniform List<scalar> 
14
(
302.538
302.283
302.257
302.239
302.23
302.235
302.245
302.256
302.266
302.275
302.284
302.292
302.299
302.306
)
;
    }
    heatsource1
    {
        type            fixedGradient;
        gradient        uniform 0;
    }
    heatsource2
    {
        type            fixedGradient;
        gradient        uniform 0;
    }
    Table_master
    {
        type            zeroGradient;
    }
    Table_slave
    {
        type            zeroGradient;
    }
    inlet
    {
        type            fixedValue;
        value           uniform 290.15;
    }
    outlet
    {
        type            zeroGradient;
    }
}


// ************************************************************************* //
