/*--------------------------------*- C++ -*----------------------------------*\
  =========                 |
  \\      /  F ield         | OpenFOAM: The Open Source CFD Toolbox
   \\    /   O peration     | Website:  https://openfoam.org
    \\  /    A nd           | Version:  6
     \\/     M anipulation  |
\*---------------------------------------------------------------------------*/
FoamFile
{
    version     2.0;
    format      ascii;
    class       volVectorField;
    location    "70";
    object      U;
}
// * * * * * * * * * * * * * * * * * * * * * * * * * * * * * * * * * * * * * //

dimensions      [0 1 -1 0 0 0 0];

internalField   nonuniform List<vector> 
459
(
(0.000301657 0.0945588 0)
(-0.184493 0.022349 0)
(-0.19274 0.00191524 0)
(-0.19598 -0.00337075 0)
(-0.195693 -0.00436324 0)
(-0.194091 -0.00601605 0)
(-0.188954 -0.00851101 0)
(-0.179507 -0.0111094 0)
(-0.16561 -0.0138341 0)
(-0.147666 -0.0164749 0)
(-0.126615 -0.0184332 0)
(-0.102804 -0.0201676 0)
(-0.076493 -0.0229896 0)
(-0.053768 -0.0284069 0)
(-0.0592915 -0.0346065 0)
(0.0253877 0.0101755 0)
(-0.0282086 -0.00592535 0)
(-0.0147885 -0.0133971 0)
(0.00659726 -0.0188272 0)
(0.0283588 -0.0219965 0)
(0.0503205 -0.0182389 0)
(0.0667176 -0.00849311 0)
(0.0697866 -0.00365355 0)
(0.0662905 -0.00170203 0)
(0.0622916 -0.000880869 0)
(0.0592772 -0.000496058 0)
(0.0568998 -0.000310363 0)
(0.0547967 -0.00018503 0)
(0.0527995 -4.94802e-06 0)
(0.0506593 0.000393259 0)
(0.0479731 0.0010973 0)
(0.0443246 0.00191799 0)
(0.0450884 0.00318098 0)
(-0.0202299 0.0227514 0)
(0.177985 0.186193 0)
(-0.139565 0.0496627 0)
(-0.0959481 0.00578728 0)
(-0.08867 0.00131769 0)
(-0.0991846 0.00628848 0)
(-0.12001 0.00225795 0)
(-0.139377 -0.00652203 0)
(-0.14751 -0.0148143 0)
(-0.146321 -0.0225191 0)
(-0.137609 -0.0288951 0)
(-0.124156 -0.0323697 0)
(-0.107533 -0.0347769 0)
(-0.0881845 -0.0382367 0)
(-0.0672008 -0.0444238 0)
(-0.047661 -0.051954 0)
(-0.0295041 -0.0558951 0)
(0.0291265 0.00516268 0)
(0.104355 0.0254869 0)
(-0.00782665 0.0083268 0)
(-0.0142593 -0.0103084 0)
(-0.00775598 -0.0240082 0)
(0.00706034 -0.035376 0)
(0.0223929 -0.0342124 0)
(0.0439167 -0.00787095 0)
(0.0444135 0.00224233 0)
(0.0409178 0.00515968 0)
(0.0392833 0.00567247 0)
(0.0390137 0.00537078 0)
(0.0390181 0.00485165 0)
(0.0389691 0.00440847 0)
(0.0388996 0.00420129 0)
(0.0385657 0.00446541 0)
(0.0373085 0.00552212 0)
(0.0337907 0.00697067 0)
(0.0449654 0.00930302 0)
(-0.0797808 0.0465814 0)
(0.409434 0.286127 0)
(-0.0932763 -0.00687478 0)
(0.0944163 -0.0524895 0)
(0.0911525 -0.0189115 0)
(0.0743423 0.0166744 0)
(0.0363181 0.0294071 0)
(-0.0163623 0.0187295 0)
(-0.064374 -0.0034411 0)
(-0.0980821 -0.0238539 0)
(-0.109094 -0.0359246 0)
(-0.11012 -0.0426224 0)
(-0.106175 -0.0474032 0)
(-0.0996286 -0.0527361 0)
(-0.0915115 -0.0594027 0)
(-0.0829861 -0.0645053 0)
(-0.0767852 -0.0621859 0)
(-0.0781374 -0.0496476 0)
(0.048809 0.0394251 0)
(-0.042957 0.0119764 0)
(-0.0393665 -0.00851337 0)
(-0.034125 -0.0307533 0)
(-0.0249822 -0.0501793 0)
(-0.020052 -0.0642044 0)
(0.0282442 -0.0238956 0)
(0.0147754 -0.00569761 0)
(0.00889448 -0.00182552 0)
(0.0113388 -0.00115358 0)
(0.0151779 -0.00114441 0)
(0.0181951 -0.00130189 0)
(0.0204992 -0.00143715 0)
(0.0225681 -0.00135419 0)
(0.0244851 0.000752747 0)
(0.0279489 0.00672979 0)
(0.0242274 0.0115738 0)
(0.0550095 0.0160878 0)
(-0.134565 0.0677387 0)
(0.657605 0.271787 0)
(0.430533 0.0756273 0)
(0.431786 0.0512398 0)
(0.434401 0.0879717 0)
(0.372255 0.11547 0)
(0.285113 0.120886 0)
(0.196301 0.107312 0)
(0.113198 0.0806963 0)
(0.038321 0.0441444 0)
(-0.0440296 -0.00913784 0)
(-0.0777051 -0.0327573 0)
(-0.0930546 -0.0434813 0)
(-0.101816 -0.0507949 0)
(-0.109206 -0.0571271 0)
(-0.117503 -0.0598071 0)
(-0.129579 -0.0522065 0)
(-0.144763 -0.0233992 0)
(-0.138943 0.0365126 0)
(-0.0901566 0.0315273 0)
(-0.0881029 0.0106123 0)
(-0.0725855 -0.0137737 0)
(-0.0650434 -0.0375172 0)
(-0.0629945 -0.0570508 0)
(-0.0661999 -0.065581 0)
(-0.0542153 -0.0439128 0)
(-0.00886416 -0.0315004 0)
(0.0239652 -0.0229509 0)
(0.0457063 -0.0183189 0)
(0.0642993 -0.0150513 0)
(0.0794494 -0.0119315 0)
(0.0902062 -0.00817477 0)
(0.0949216 -0.00330421 0)
(0.0913866 0.00284553 0)
(0.0767744 0.0125804 0)
(0.0522983 0.02549 0)
(0.0714243 0.0379779 0)
(-0.179243 0.0845175 0)
(0.782757 -0.386372 0)
(0.394676 -0.280403 0)
(0.445991 -0.134833 0)
(0.472566 0.0110024 0)
(0.425042 0.117447 0)
(0.347553 0.16991 0)
(0.266082 0.178136 0)
(0.18657 0.156968 0)
(0.112349 0.119651 0)
(0.0439474 0.0718482 0)
(-0.0235193 0.0122497 0)
(-0.0633401 -0.0226017 0)
(-0.0833541 -0.0370636 0)
(-0.098416 -0.0461066 0)
(-0.112003 -0.0519175 0)
(-0.124811 -0.0529361 0)
(-0.133538 -0.0449292 0)
(-0.132898 -0.0236229 0)
(-0.1186 -0.00379807 0)
(-0.100375 -0.00709943 0)
(-0.0851594 -0.024507 0)
(-0.0763375 -0.0442966 0)
(-0.0708419 -0.0610795 0)
(-0.063575 -0.0685077 0)
(-0.0467817 -0.0601765 0)
(-0.0207139 -0.0510493 0)
(0.00638927 -0.0386465 0)
(0.0267199 -0.0308073 0)
(0.0439138 -0.0253116 0)
(0.0586554 -0.0195428 0)
(0.070493 -0.0117302 0)
(0.0785976 -0.000613039 0)
(0.0811298 0.0129947 0)
(0.0768449 0.028434 0)
(0.0630426 0.0454087 0)
(0.0823815 0.0658559 0)
(-0.0287578 0.0935076 0)
(0.061841 0.0395001 0)
(-0.0537524 -0.0268865 0)
(-0.299992 -0.0537926 0)
(0.713858 -0.546692 0)
(0.0707867 -0.288974 0)
(0.205037 -0.0363939 0)
(0.282203 0.116953 0)
(0.272041 0.1996 0)
(0.237289 0.240038 0)
(0.19809 0.244179 0)
(0.154535 0.219734 0)
(0.108867 0.177792 0)
(0.0640261 0.125634 0)
(0.0196973 0.0685156 0)
(-0.0229841 0.013763 0)
(-0.0516977 -0.0160956 0)
(-0.0693976 -0.0301785 0)
(-0.0834435 -0.0371649 0)
(-0.095197 -0.0382788 0)
(-0.102913 -0.0332556 0)
(-0.103895 -0.0244242 0)
(-0.0973507 -0.0176665 0)
(-0.0871017 -0.0213036 0)
(-0.0786507 -0.0342279 0)
(-0.0735734 -0.0512156 0)
(-0.0697105 -0.0678461 0)
(-0.0627288 -0.0791289 0)
(-0.0485088 -0.0809437 0)
(-0.0285551 -0.0730527 0)
(-0.00866652 -0.0588302 0)
(0.00819682 -0.0481818 0)
(0.0224202 -0.0409614 0)
(0.0355684 -0.0336831 0)
(0.0477039 -0.0238633 0)
(0.0587632 -0.00920798 0)
(0.0679814 0.010079 0)
(0.0723227 0.0305044 0)
(0.0715143 0.0512049 0)
(0.0908189 0.075654 0)
(0.0673689 0.0895689 0)
(0.109605 0.0669522 0)
(0.127831 0.0476696 0)
(-0.1189 0.00649244 0)
(0.606333 -0.575066 0)
(-0.206277 -0.297779 0)
(0.0453207 -0.0639106 0)
(0.120771 0.117778 0)
(0.101845 0.205558 0)
(0.0997368 0.255933 0)
(0.0982287 0.268168 0)
(0.0891066 0.248614 0)
(0.0742363 0.208755 0)
(0.0562221 0.157165 0)
(0.0356138 0.101029 0)
(0.0127805 0.0489824 0)
(-0.0114593 0.008373 0)
(-0.03147 -0.0144873 0)
(-0.0447307 -0.0256459 0)
(-0.0549329 -0.0296234 0)
(-0.0617091 -0.0282595 0)
(-0.0641044 -0.024468 0)
(-0.0624679 -0.0225084 0)
(-0.0594041 -0.0266907 0)
(-0.0579681 -0.0374743 0)
(-0.0590408 -0.0531479 0)
(-0.0608545 -0.0710313 0)
(-0.0592856 -0.0875339 0)
(-0.0501818 -0.0975972 0)
(-0.0355711 -0.0924096 0)
(-0.0204232 -0.0744343 0)
(-0.0109791 -0.0618551 0)
(-0.00229157 -0.0534445 0)
(0.00644807 -0.0460409 0)
(0.0157177 -0.0369988 0)
(0.026641 -0.0229448 0)
(0.0414449 -0.00122101 0)
(0.0548196 0.0222272 0)
(0.0642434 0.0431491 0)
(0.0850272 0.0640968 0)
(0.0990085 0.0690408 0)
(0.13162 0.0481633 0)
(0.172729 0.047102 0)
(-0.0299058 0.108284 0)
(0.389131 -0.462013 0)
(-0.292531 -0.277169 0)
(-0.21616 -0.141868 0)
(-0.0385746 0.11247 0)
(-0.0719931 0.174148 0)
(-0.0281669 0.233854 0)
(0.00533292 0.257939 0)
(0.0246183 0.246321 0)
(0.0354892 0.212607 0)
(0.0408308 0.165347 0)
(0.0412274 0.113548 0)
(0.0362817 0.0658321 0)
(0.0263609 0.0285688 0)
(0.0132049 0.00268216 0)
(0.000101217 -0.0138266 0)
(-0.0094346 -0.0215351 0)
(-0.0160775 -0.0234398 0)
(-0.0197605 -0.0227294 0)
(-0.0211806 -0.022604 0)
(-0.0224238 -0.02593 0)
(-0.025933 -0.0342291 0)
(-0.033069 -0.0481885 0)
(-0.0427703 -0.0672327 0)
(-0.0501673 -0.0892507 0)
(-0.048252 -0.108011 0)
(-0.040441 -0.107437 0)
(-0.029343 -0.0839768 0)
(-0.0280696 -0.0674733 0)
(-0.0286816 -0.0579459 0)
(-0.0293685 -0.0512647 0)
(-0.0291296 -0.0448606 0)
(-0.0266661 -0.0366093 0)
(-0.0197499 -0.0245416 0)
(0.00414989 -0.00614469 0)
(0.0159263 0.0126337 0)
(0.033375 0.0248896 0)
(0.0477633 0.0185175 0)
(0.063808 -0.00293224 0)
(0.130974 0.0606424 0)
(-0.496314 0.243292 0)
(0.106981 -0.33739 0)
(-0.586812 -0.277893 0)
(-0.737273 -0.246487 0)
(-0.194282 -0.022583 0)
(-0.218193 0.0997576 0)
(-0.12945 0.177344 0)
(-0.0703965 0.216442 0)
(-0.0279778 0.218701 0)
(0.00447004 0.193895 0)
(0.0284795 0.152709 0)
(0.0456663 0.108016 0)
(0.0553141 0.0674276 0)
(0.0574611 0.0354539 0)
(0.0540485 0.0126572 0)
(0.0463501 -0.00316154 0)
(0.0384635 -0.0129122 0)
(0.0315377 -0.0177162 0)
(0.0262791 -0.0195296 0)
(0.0224366 -0.0205304 0)
(0.0186797 -0.0225876 0)
(0.0130725 -0.0271287 0)
(0.00281527 -0.0365134 0)
(-0.0142495 -0.0536794 0)
(-0.0330029 -0.0792834 0)
(-0.0395261 -0.10719 0)
(-0.0415051 -0.114232 0)
(-0.0337758 -0.084303 0)
(-0.0404891 -0.0627947 0)
(-0.0533126 -0.0511034 0)
(-0.0679216 -0.0426496 0)
(-0.0845913 -0.0337357 0)
(-0.104465 -0.0215839 0)
(-0.128728 -0.00381006 0)
(-0.155425 0.0198946 0)
(-0.182169 0.0449254 0)
(-0.223955 0.0686518 0)
(-0.28271 0.0860627 0)
(-0.346993 0.0942202 0)
(-0.421145 0.0932182 0)
(-0.701 0.0820338 0)
(-1.55055 -0.265357 0)
(-0.132128 -0.167046 0)
(-0.257957 -0.00515612 0)
(-0.183444 0.103221 0)
(-0.119034 0.155631 0)
(-0.0632246 0.169885 0)
(-0.0160482 0.156825 0)
(0.0247354 0.122773 0)
(0.0541067 0.0876665 0)
(0.0746919 0.0565983 0)
(0.0860007 0.032155 0)
(0.0899362 0.0144659 0)
(0.0887211 0.002046 0)
(0.0837016 -0.00633424 0)
(0.0775906 -0.0112947 0)
(0.0715505 -0.0138826 0)
(0.065955 -0.0152654 0)
(0.0603213 -0.0164124 0)
(0.053497 -0.0179994 0)
(0.0433958 -0.0210105 0)
(0.0266248 -0.0280394 0)
(-0.00163125 -0.0492257 0)
(-0.0169648 -0.0866545 0)
(-0.0362942 -0.105686 0)
(-0.0361282 -0.0665092 0)
(-0.044684 -0.0411301 0)
(-0.064164 -0.0317261 0)
(-0.0840961 -0.0252815 0)
(-0.102759 -0.0169836 0)
(-0.118591 -0.00445039 0)
(-0.130461 0.0134015 0)
(-0.13984 0.0364756 0)
(-0.148078 0.0641995 0)
(-0.157395 0.0897514 0)
(-0.163844 0.100221 0)
(-0.148678 0.0736088 0)
(-0.0983435 -0.0350135 0)
(-0.289846 -0.246699 0)
(-0.281093 0.0469349 0)
(-0.0868913 -0.143718 0)
(-0.212686 -0.0357582 0)
(-0.194934 0.0463927 0)
(-0.142597 0.0937891 0)
(-0.0820169 0.112271 0)
(-0.0235128 0.108642 0)
(0.0326554 0.0837362 0)
(0.0701557 0.0603987 0)
(0.0979054 0.0412034 0)
(0.115044 0.0272011 0)
(0.123482 0.0181639 0)
(0.125872 0.0130999 0)
(0.124042 0.0103601 0)
(0.119993 0.00884275 0)
(0.114806 0.00847514 0)
(0.109039 0.00901627 0)
(0.10281 0.0102676 0)
(0.0958183 0.0122003 0)
(0.0871382 0.0145219 0)
(0.07461 0.0149422 0)
(0.0547046 0.00232139 0)
(0.0356267 -0.0506586 0)
(-0.0173057 -0.101465 0)
(-0.0481323 -0.0458808 0)
(-0.0554205 0.0115155 0)
(-0.0691812 0.0331073 0)
(-0.0804654 0.040035 0)
(-0.0891951 0.0410649 0)
(-0.0944959 0.0392529 0)
(-0.0944608 0.0412076 0)
(-0.0871361 0.0511932 0)
(-0.073121 0.0697181 0)
(-0.0537755 0.0905588 0)
(-0.0315706 0.103591 0)
(0.00923481 0.0904215 0)
(0.141021 0.0117179 0)
(-0.199859 -0.163435 0)
(0.263557 -0.145677 0)
(-0.240863 -0.0979732 0)
(-0.195993 0.0536106 0)
(-0.171169 -0.0531701 0)
(-0.2268 -0.0166056 0)
(-0.210002 0.0166121 0)
(-0.158742 0.0398023 0)
(-0.091054 0.0511717 0)
(-0.0162706 0.0493824 0)
(0.0560656 0.0265354 0)
(0.0998764 0.00892023 0)
(0.132651 -0.00658486 0)
(0.153803 -0.0200815 0)
(0.165244 -0.0319238 0)
(0.170027 -0.0425162 0)
(0.170516 -0.0518938 0)
(0.168083 -0.0599913 0)
(0.163819 -0.0673345 0)
(0.158445 -0.0743613 0)
(0.152489 -0.0814133 0)
(0.14637 -0.0887601 0)
(0.140436 -0.0968178 0)
(0.134641 -0.106657 0)
(0.126944 -0.120403 0)
(0.11281 -0.142134 0)
(0.0382274 -0.195942 0)
(-0.0613134 -0.208985 0)
(-0.0803842 -0.189314 0)
(-0.0937879 -0.176985 0)
(-0.0993683 -0.164424 0)
(-0.100006 -0.14765 0)
(-0.0953046 -0.125593 0)
(-0.0827012 -0.101475 0)
(-0.0592122 -0.074584 0)
(-0.0266902 -0.0449265 0)
(0.0363661 -0.00666377 0)
(0.0889234 -0.00553542 0)
(0.140864 -0.0312703 0)
(0.190555 -0.0837259 0)
(-0.137938 -0.161394 0)
)
;

boundaryField
{
    floor
    {
        type            noSlip;
    }
    ceiling
    {
        type            noSlip;
    }
    sWall
    {
        type            noSlip;
    }
    nWall
    {
        type            noSlip;
    }
    sideWalls
    {
        type            empty;
    }
    glass1
    {
        type            noSlip;
    }
    glass2
    {
        type            noSlip;
    }
    sun
    {
        type            noSlip;
    }
    heatsource1
    {
        type            noSlip;
    }
    heatsource2
    {
        type            noSlip;
    }
    Table_master
    {
        type            noSlip;
    }
    Table_slave
    {
        type            noSlip;
    }
    inlet
    {
        type            fixedValue;
        value           uniform (0.1 0 0);
    }
    outlet
    {
        type            zeroGradient;
    }
}


// ************************************************************************* //
