/*--------------------------------*- C++ -*----------------------------------*\
  =========                 |
  \\      /  F ield         | OpenFOAM: The Open Source CFD Toolbox
   \\    /   O peration     | Website:  https://openfoam.org
    \\  /    A nd           | Version:  6
     \\/     M anipulation  |
\*---------------------------------------------------------------------------*/
FoamFile
{
    version     2.0;
    format      ascii;
    class       surfaceScalarField;
    location    "1800";
    object      phi;
}
// * * * * * * * * * * * * * * * * * * * * * * * * * * * * * * * * * * * * * //

dimensions      [1 0 -1 0 0 0 0];

internalField   nonuniform List<scalar> 
852
(
-0.00303433
0.00309409
-0.00410866
0.00107433
-0.00490883
0.000800169
-0.0055227
0.000613874
-0.00591899
0.000396291
-0.00607452
0.000155529
-0.00596863
-0.00010589
-0.00558969
-0.000378939
-0.00496061
-0.000629083
-0.00414274
-0.00081787
-0.00322386
-0.000918883
-0.00229771
-0.000926153
-0.00144605
-0.000851651
-0.000702262
-0.000743793
-0.000700226
-0.00078818
0.000791862
-0.000431031
-0.000357149
0.000246678
-0.000677709
0.000775923
-0.000529244
0.00112759
-0.000351663
0.00134624
-0.000218653
0.00146425
-0.000118012
0.00152184
-5.75843e-05
0.00155363
-3.17952e-05
0.00157256
-1.89283e-05
0.00158259
-1.00215e-05
0.00158505
-2.46576e-06
0.00157807
6.98231e-06
0.00155288
2.51943e-05
0.00148597
6.69118e-05
0.00133809
0.000147875
0.00109685
0.00024124
0.000802581
0.000294276
0.00080757
-0.00215894
0.00541354
-0.00319879
0.00211418
-0.00401714
0.00161852
-0.00461884
0.00121558
-0.00500682
0.000784269
-0.00516685
0.000315555
-0.00507554
-0.000197203
-0.00472698
-0.000727502
-0.00415597
-0.00120009
-0.0034305
-0.00154334
-0.00263563
-0.00171376
-0.0018509
-0.00171088
-0.00114762
-0.00155494
-0.000606646
-0.00128476
-0.00038604
-0.000920832
1.75248e-05
-0.000403616
1.74739e-05
0.000409379
0.000393033
0.000846327
-0.000794096
0.00110938
-0.000940762
0.00133827
-0.000758127
0.00151218
-0.000525581
0.00161541
-0.000321881
0.00163146
-0.000134058
0.00163544
-6.15641e-05
0.00164033
-3.66838e-05
0.00164441
-2.301e-05
0.00164707
-1.26808e-05
0.00164828
-3.67331e-06
0.00164713
8.13361e-06
0.00163981
3.25155e-05
0.00159566
0.000111068
0.0014079
0.000335637
0.00108736
0.000561775
0.000691557
0.000690083
0.00151178
-0.00150645
0.00716517
-0.00240071
0.00300845
-0.00312106
0.00233886
-0.00363018
0.0017247
-0.00396122
0.00111531
-0.0040947
0.000449034
-0.00398745
-0.000304458
-0.00363473
-0.00108022
-0.00309474
-0.00174007
-0.00244442
-0.00219366
-0.00176401
-0.00239417
-0.00111178
-0.0023631
-0.000535534
-0.00213119
-7.63884e-05
-0.00174391
0.000228929
-0.00122615
0.000398197
-0.000572885
0.000415671
0.00160352
-0.00119933
0.00183337
-0.00102395
0.00179385
-0.000901237
0.00178672
-0.000751003
0.00181086
-0.000549719
0.00182966
-0.00034068
0.00169576
0.00163435
0.00159782
0.00157496
0.00156244
0.00155892
0.00156721
0.00159988
0.0017111
0.00140248
0.000644258
0.00103393
0.000930323
0.000584623
0.0011394
0.0021155
-0.00104773
0.00853013
-0.00175407
0.00371479
-0.00222231
0.0028071
-0.00254493
0.00204732
-0.00274519
0.00131556
-0.00278502
0.000488866
-0.00259863
-0.00049085
-0.00220881
-0.00147005
-0.00170626
-0.00224262
-0.00116439
-0.00273553
-0.00064392
-0.00291464
-0.000171001
-0.00283603
0.000239574
-0.00254176
0.000585276
-0.00208961
0.000898445
-0.00153932
0.00127217
-0.000946608
0.0021187
-0.000430864
0.00260784
-0.000478988
0.00216721
-0.000758697
0.00202625
-0.000882987
0.00190826
-0.000783245
0.00180879
-0.000651535
0.00175744
-0.000498371
0.00173953
-0.000322772
0.00188001
-0.000140635
0.00197166
-9.18002e-05
0.00204509
-7.35833e-05
0.00209908
-5.41381e-05
0.00211701
-1.80845e-05
0.00207631
4.05443e-05
0.00195219
0.000123966
0.00171238
0.000239659
0.00130052
0.000411706
0.00115037
0.000794413
0.000825086
0.00125561
0.000331145
0.00163334
0.00247161
-0.000731324
0.00963987
-0.00126562
0.00424909
-0.00134781
0.00288929
-0.00138271
0.00208222
-0.00136663
0.00129948
-0.00119888
0.00032112
-0.000847677
-0.000842058
-0.000418684
-0.00189904
-7.95521e-07
-0.00266051
0.000357421
-0.00309375
0.000643427
-0.00320065
0.000861773
-0.00305437
0.00103184
-0.00271183
0.00117954
-0.00223731
0.00133681
-0.00169658
0.00155192
-0.00116173
0.00186417
-0.000743108
0.00199031
-0.000605128
0.00188964
-0.000658036
0.00170065
-0.000693994
0.00154419
-0.000626784
0.00141875
-0.000526093
0.00133634
-0.000415958
0.00131147
-0.000297906
0.00136912
-0.000198285
0.00143371
-0.000156383
0.00150112
-0.000140998
0.00156577
-0.000118789
0.00161426
-6.65667e-05
0.00162484
2.99624e-05
0.00157736
0.000171443
0.00146165
0.000355376
0.00128058
0.000592775
0.00111976
0.000955231
0.000942945
0.00143243
0.000540342
0.00203594
0.000409172
0.00260278
-0.00111895
0.00152792
-0.00158134
0.000462188
-0.00152733
-0.000635554
0.0107055
-0.000996622
0.00461016
-0.000539474
0.00243214
-0.000110128
0.00165288
0.000264435
0.00092492
0.000760222
-0.000174666
0.00128544
-0.00136728
0.00167395
-0.00228754
0.00190261
-0.00288917
0.00198767
-0.00317882
0.00197198
-0.00318496
0.00188366
-0.00296605
0.00175868
-0.00258686
0.00163404
-0.00211267
0.00154109
-0.00160364
0.00150233
-0.00112297
0.00150876
-0.000749534
0.00146173
-0.000558103
0.00131798
-0.000514281
0.0011223
-0.000498313
0.0009506
-0.000455086
0.000821372
-0.000396864
0.000741708
-0.000336293
0.000720703
-0.000276901
0.000755857
-0.000233438
0.000819676
-0.000220201
0.000898662
-0.000219983
0.000986431
-0.000206558
0.00107557
-0.000155704
0.00114952
-4.39825e-05
0.00118969
0.000131265
0.00119772
0.000347349
0.00118233
0.00060817
0.00119437
0.000943194
0.00128748
0.00133932
0.00146853
0.00185489
0.0019594
0.00211192
0.00223948
0.00124784
0.00184966
0.000852009
0.000387033
-0.000664769
0.0118474
-0.000521662
0.00446705
0.00070465
0.00120583
0.00162148
0.000736049
0.00246414
8.22607e-05
0.00324761
-0.000958139
0.00373774
-0.0018574
0.00392747
-0.00247728
0.003857
-0.0028187
0.00358678
-0.0029086
0.00318733
-0.00278551
0.0027215
-0.00250023
0.00224627
-0.00211163
0.00180897
-0.00167537
0.00143998
-0.00123465
0.00115296
-0.000835945
0.000941149
-0.000537726
0.000759029
-0.000375983
0.000569412
-0.000324663
0.000383642
-0.000312541
0.000229346
-0.00030079
0.000118669
-0.000286185
5.49511e-05
-0.000272574
4.05814e-05
-0.00026253
6.96188e-05
-0.000262475
0.000125768
-0.000276349
0.000198313
-0.000292526
0.000285813
-0.000294057
0.000392528
-0.000262418
0.00052296
-0.000174413
0.000656196
-1.97026e-06
0.000782736
0.000220811
0.00092136
0.000469548
0.00111229
0.000752267
0.00140897
0.00104264
0.00188578
0.00137808
0.00262483
0.00137287
0.00322133
0.000651346
0.00328556
0.000787775
0.00374195
0.00275834
0.00962348
0.00353277
0.00369262
0.00414177
0.00059683
0.00512298
-0.000245169
0.00604147
-0.00083623
0.00652302
-0.00143968
0.00656498
-0.00189937
0.00623567
-0.00214797
0.00562238
-0.00220542
0.00482298
-0.0021092
0.00393552
-0.00189805
0.00304311
-0.00160782
0.00221248
-0.001281
0.00149097
-0.000953859
0.000900339
-0.000644017
0.000447689
-0.000383294
0.00012713
-0.000217167
-0.00010074
-0.000148112
-0.00027969
-0.000145712
-0.000426665
-0.000165565
-0.000542133
-0.000185321
-0.000625201
-0.000203116
-0.000676993
-0.000220781
-0.00069936
-0.000240161
-0.000698146
-0.000263688
-0.000683485
-0.000291009
-0.00066105
-0.00031496
-0.000629192
-0.000325914
-0.000577918
-0.00031369
-0.000486105
-0.000266224
-0.000322623
-0.000165451
-0.000118534
1.67237e-05
0.00010962
0.000241395
0.000391985
0.000469903
0.000735682
0.000698942
0.00119249
0.000921281
0.0016754
0.000889951
0.00181046
0.000516288
0.000976255
0.00162198
0.00501127
0.0102154
0.013904
0.0129722
0.00152867
0.012352
0.000375001
0.0116159
-0.000100139
0.0105935
-0.000417247
0.00930214
-0.000608044
0.00785239
-0.000698228
0.0063442
-0.000697231
0.00486371
-0.000628713
0.00348937
-0.000523711
0.00227301
-0.00039146
0.00124822
-0.000256217
0.000424736
-0.000130373
-0.000191731
-2.75486e-05
-0.000599614
2.45902e-05
-0.000844126
2.73463e-05
-0.00100027
8.03788e-06
-0.00112036
-2.56225e-05
-0.0012224
-6.35276e-05
-0.00130982
-9.78997e-05
-0.00138386
-0.000129076
-0.00144717
-0.000157461
-0.00150355
-0.000183783
-0.00155902
-0.00020822
-0.00162159
-0.000228431
-0.00169852
-0.000238036
-0.00179692
-0.000227513
-0.00192578
-0.00018482
-0.00209682
-9.51836e-05
-0.00231698
5.47095e-05
-0.00257255
0.000272289
-0.00290711
0.000575963
-0.00342184
0.000984636
-0.00421398
0.00149108
-0.00533847
0.00204578
-0.00690332
0.0024548
-0.00875791
0.00237088
-0.00813051
0.000994582
-0.00279357
0.00437038
0.00339113
0.00336278
0.00138259
0.00366935
-0.000406716
0.00362396
-0.000371855
0.00318207
-0.000166157
0.00251082
-2.69745e-05
0.00172104
9.25529e-05
0.000904535
0.000187797
0.000135834
0.000244993
-0.000516913
0.000261289
-0.0010136
0.000240476
-0.00135697
0.000212994
-0.00156568
0.000181163
-0.00168307
0.000141983
-0.00175747
0.000101754
-0.00181517
6.57346e-05
-0.00187387
3.30779e-05
-0.00194016
2.76146e-06
-0.00201123
-2.68205e-05
-0.00208497
-5.53366e-05
-0.00216349
-7.89427e-05
-0.00224993
-9.73402e-05
-0.0023478
-0.000110352
-0.00245979
-0.000116431
-0.00258597
-0.000111854
-0.00272274
-9.07494e-05
-0.00286138
-4.61712e-05
-0.00298665
3.00888e-05
-0.00309061
0.000158668
-0.003178
0.00035968
-0.00325984
0.000657802
-0.00334849
0.00107329
-0.00344791
0.0015905
-0.00349922
0.0020971
-0.00341164
0.00236721
-0.00298751
0.00194676
-0.00166056
-0.000332367
-0.00436928
-0.000798141
0.00427354
-0.000334652
0.000919098
-0.000996468
0.000255101
-0.00150088
0.000132564
-0.00184211
0.00017507
-0.00209896
0.000229883
-0.00228551
0.000279109
-0.00241804
0.000320324
-0.00250686
0.000333824
-0.00255728
0.000311705
-0.00257984
0.000263037
-0.00257496
0.000208117
-0.00254957
0.000155777
-0.00251734
0.00010976
-0.00248937
7.37847e-05
-0.00247106
4.74283e-05
-0.00246525
2.72691e-05
-0.00247286
1.03683e-05
-0.00249129
-8.38906e-06
-0.00252117
-2.54578e-05
-0.00256151
-3.85961e-05
-0.00261139
-4.74544e-05
-0.0026697
-5.20464e-05
-0.00273451
-5.16128e-05
-0.00280212
-4.42479e-05
-0.0028661
-2.67697e-05
-0.00291756
5.29009e-06
-0.00294145
5.39868e-05
-0.002914
0.00013122
-0.00280834
0.000254016
-0.00258931
0.000438772
-0.00222859
0.00071258
-0.00172902
0.00109093
-0.00107435
0.00144242
-4.40289e-05
0.0013369
0.0012759
0.000626833
0.00159416
-0.000650627
-0.00268173
-0.00788936
-0.0111469
-0.00681788
-0.00587043
-0.00559595
-0.00544781
-0.00525952
-0.0050181
-0.00472861
-0.00439868
-0.00405566
-0.00373487
-0.00346259
-0.00324496
-0.00307934
-0.00295944
-0.00287523
-0.00281713
-0.00277901
-0.00275766
-0.00275502
-0.00276946
-0.0027971
-0.00283371
-0.00287506
-0.00291616
-0.00295011
-0.00296682
-0.00295175
-0.00288829
-0.00274793
-0.00248513
-0.00203796
-0.0013174
-0.000218926
0.0012304
0.00257389
0.00320728
0.00256348
)
;

boundaryField
{
    floor
    {
        type            calculated;
        value           nonuniform List<scalar> 
29
(
0
0
0
0
0
0
0
0
0
0
0
0
0
0
0
0
0
0
0
0
-4.98718e-06
-1.26466e-05
-1.90973e-05
-2.49684e-05
-2.0362e-06
-3.6811e-06
-1.05498e-05
-1.11564e-05
-1.01507e-05
)
;
    }
    ceiling
    {
        type            calculated;
        value           nonuniform List<scalar> 
43
(
-5.94812e-05
-5.72493e-05
-5.54593e-05
-2.83529e-05
-1.93716e-05
-1.55771e-05
-1.32092e-05
-1.15375e-05
-1.03746e-05
-9.60892e-06
-9.19044e-06
-9.08945e-06
-9.23667e-06
-9.51504e-06
-9.8322e-06
-1.01416e-05
-1.04236e-05
-1.06658e-05
-1.08549e-05
-1.09785e-05
-1.103e-05
-1.10157e-05
-1.09506e-05
-1.08414e-05
-1.06937e-05
-1.05115e-05
-1.02978e-05
-1.00544e-05
-9.78059e-06
-9.47357e-06
-9.14019e-06
-8.78076e-06
-8.39548e-06
-7.98266e-06
-7.53799e-06
-6.89952e-06
-6.59025e-06
-6.56198e-06
-6.82616e-06
-6.47731e-06
6.42089e-06
3.98037e-06
-8.42736e-05
)
;
    }
    sWall
    {
        type            calculated;
        value           uniform -0.000279807;
    }
    nWall
    {
        type            calculated;
        value           nonuniform List<scalar> 6(-5.42104e-05 -6.47033e-05 -6.93575e-05 -8.48541e-05 -9.33862e-05 -0.000111764);
    }
    sideWalls
    {
        type            empty;
        value           nonuniform 0();
    }
    glass1
    {
        type            calculated;
        value           nonuniform List<scalar> 9(-5.97615e-05 -0.000160516 -0.00024518 -0.000317229 -0.000378415 -0.000430053 -0.000477195 -0.00053438 -0.000598316);
    }
    glass2
    {
        type            calculated;
        value           nonuniform List<scalar> 2(-0.000293058 -0.000325665);
    }
    sun
    {
        type            calculated;
        value           uniform 0;
    }
    heatsource1
    {
        type            calculated;
        value           nonuniform List<scalar> 3(2.05026e-07 2.04922e-07 2.0494e-07);
    }
    heatsource2
    {
        type            calculated;
        value           nonuniform List<scalar> 4(5.14086e-08 5.15255e-08 0 0);
    }
    Table_master
    {
        type            calculated;
        value           nonuniform List<scalar> 9(-1.53768e-07 -1.53858e-07 -1.5389e-07 -1.53912e-07 -1.53927e-07 -1.53937e-07 -1.53941e-07 -1.53934e-07 -1.539e-07);
    }
    Table_slave
    {
        type            calculated;
        value           nonuniform List<scalar> 9(1.53627e-07 1.53648e-07 1.53624e-07 1.53606e-07 1.53602e-07 1.53605e-07 1.53625e-07 1.53675e-07 1.53766e-07);
    }
    inlet
    {
        type            calculated;
        value           uniform -0.00623285;
    }
    outlet
    {
        type            calculated;
        value           nonuniform List<scalar> 2(0.00822866 0.00331478);
    }
}


// ************************************************************************* //
