/*--------------------------------*- C++ -*----------------------------------*=========                 |
  \      /  F ield         | OpenFOAM: The Open Source CFD Toolbox
   \    /   O peration     | Website:  https://openfoam.org
    \  /    A nd           | Version:  6
     \/     M anipulation  |
\*---------------------------------------------------------------------------*/
FoamFile
{
    version     2.0;
    format      ascii;
    class       volScalarField;
    location    "1600";
    object      PMV;
}
// * * * * * * * * * * * * * * * * * * * * * * * * * * * * * * * * * * * * * //

dimensions      [0 0 0 0 0 0 0];

internalField   nonuniform List<scalar> 
459
(
1.6674274927173889
1.4522592820304505
1.426212060716263
1.4028699291900226
1.3874275132149714
1.3779254139237467
1.3749926818098896
1.3785006783533589
1.3877056757718906
1.403718643955613
1.4284896576570414
1.4625570581208733
1.508466084406192
1.5491364704260042
1.5529583703084018
1.6179122507220363
1.6050193811307338
1.5997663389143695
1.6016765620157825
1.6040642992448755
1.6069295225232127
1.6072241889698675
1.6033756748648922
1.6027515664983074
1.6035646604581326
1.6054081768536446
1.6072289635485373
1.6095963205220107
1.6128577675845208
1.6179876636000727
1.6271479553206343
1.6346231457231335
1.637965035751394
1.6498995532190606
1.6309027055898917
1.4733233177602851
1.4651603257058212
1.4439683360243738
1.431274548859676
1.423786923402614
1.4212442939488046
1.423441855303324
1.4275630704452316
1.435364652830818
1.4494121431303508
1.4722307903999223
1.5050272026203793
1.5405368111420863
1.5410145838353517
1.5414923549093034
1.542447892191896
1.5819331617031631
1.5954682293163125
1.5911699718246726
1.5926027406700167
1.587920395034162
1.5838363417665247
1.582507032090407
1.5835527465913777
1.58465956649097
1.58544514287862
1.5860790342357665
1.5867960869785447
1.5876593037400573
1.5891926049267946
1.5916778018777646
1.5992230418476905
1.6155247865022593
1.6212546201221465
1.6131384526656272
1.6734752010884775
1.4769854132816584
1.5009440506336087
1.491077925280207
1.4880870633518621
1.487681447581803
1.4884560443129051
1.489095584465626
1.4846071008092803
1.4773977587156821
1.4738061303605572
1.4784327806327182
1.4954230734597411
1.5249061042295007
1.5376701410727316
1.540059036831126
1.541970124362045
1.4908420455101798
1.5310166457890935
1.5441322851709525
1.5529545136643974
1.5628125767053405
1.5695538949887216
1.5731376667320491
1.5814615439556556
1.5869059360785862
1.589890523226315
1.5914775531895742
1.5920463814659953
1.5925151666253408
1.59164057720306
1.5874508993358944
1.5893999657334779
1.6072074641599507
1.5987334702188012
1.5521036807793889
1.749247102011913
1.4828051663838717
1.5286881929578782
1.5382790492886314
1.555669709218951
1.5715773502276724
1.583398851079239
1.5791570258022969
1.554123606618641
1.517805185598802
1.4867505311616236
1.469335065889956
1.470808864860205
1.4902390562330503
1.5206956670952063
1.5405368111420863
1.5272937099406587
1.4868069508418384
1.484876165680765
1.5122737030076683
1.538067561647579
1.5595030464080835
1.5773836384833477
1.5910629422913882
1.5958019990105048
1.5951311824515064
1.5948345830841064
1.59599163403212
1.5981705160300388
1.6016851641607077
1.6078830946912983
1.619745566206865
1.6416933263426645
1.6355779007368587
1.6213229689967952
1.5786024304169528
1.5078667093304003
1.838773299540621
1.5037421737034853
1.5557210685435354
1.5843869109831779
1.6312460295523123
1.685254980189624
1.709552288260309
1.6666918232640238
1.5955272158337213
1.5258329812842166
1.4752291517836331
1.44682811523409
1.4416714531611252
1.4568559588422356
1.4848606780454054
1.5116091614681855
1.5197773477517802
1.517086526812986
1.525841092542205
1.550257964702819
1.5797595615343691
1.6065394736859138
1.6288733102102304
1.6436937619181227
1.6522863040912117
1.6587950970684864
1.6595579476191742
1.6597200626526813
1.6590131490137643
1.657490093107525
1.6571293302670964
1.6577550042479041
1.6596582179724684
1.6457715341244037
1.6201631462414567
1.5606948598354624
1.5547948509590286
1.6823548704054736
1.6684692227424187
1.5071812588073554
1.9284286902059982
1.5463087879694617
1.6086652124524048
1.6375764580279257
1.7062126511284472
1.733403497224986
1.7251251450859937
1.6460011369162832
1.568929029052861
1.4971007652635389
1.4428649374840463
1.4142557768612758
1.4127899552989247
1.4339866657967153
1.4699967130661555
1.5101749152062023
1.5416642932591507
1.5641162766480672
1.588534282480059
1.619081740232164
1.6360553962516764
1.6508542597273796
1.6623100927889656
1.671378436832081
1.6790143381424256
1.684740899232973
1.6895127916007928
1.692852984196118
1.6942844618003594
1.6933301456371623
1.6899899686537694
1.6852180984062093
1.67805988074827
1.656060529404232
1.6222758858801019
1.5602259073720277
1.5582764838533816
1.5726346218116567
1.5711303776290615
1.58343006580867
2.017799333788532
1.6419689647899791
1.7596850242686923
1.7331403333200133
1.729236432069234
1.7042959617776807
1.6514808418257991
1.579412618989596
1.5006631575077054
1.4313610686366587
1.3858300857651897
1.3714240749217739
1.387779498752507
1.4275445387639816
1.4832208702876533
1.5444326893768572
1.5887819875944449
1.61218225660192
1.633668302113096
1.6527636480980492
1.6685148320653718
1.6814004435322658
1.690944316086146
1.6985787732446194
1.7047813435609833
1.7090752041635178
1.7124147441855395
1.7138459407697821
1.7138459407697821
1.7114606014929945
1.705735550900814
1.6985787732446194
1.690467143482956
1.6790143381424256
1.6427190200067094
1.5845240559903655
1.5615082010622654
1.5499557236121846
1.5247088131804656
1.6102699975790211
2.1501975824359123
1.9593181393866839
1.914493603509976
1.8159047418816348
1.7570854283477142
1.6756284364956726
1.5724995908893642
1.4655151116551495
1.3766024369116563
1.3213964570016015
1.305531300847425
1.3287596468619498
1.3826999693298951
1.4572075530575086
1.5452410330544788
1.5921251528669884
1.625074355076713
1.651808958025787
1.6723329546477075
1.6880812471204298
1.7004872973711613
1.7100293700438747
1.717185317699527
1.7229096956694034
1.7267257578233477
1.7291107189403614
1.7305416667651536
1.7305416667651536
1.7291107189403614
1.726248758409048
1.7210016075003394
1.7133688775719336
1.7052584483775792
1.6952387689905961
1.684740899232973
1.674241964518497
1.6505123663471797
1.637038514187062
1.5778557410905991
1.4979662346638893
2.3469122072153517
2.214662411351501
2.04856057612817
1.8682932818514253
1.662642337587198
1.4473679908688961
1.2766400090622745
1.1709204243812712
1.1341439025966409
1.1591459229231516
1.2311341942715457
1.3357486071041849
1.4556526050164418
1.5438811859267498
1.598811216299278
1.6446485213959323
1.6737647152760766
1.6938073048392799
1.70859811775569
1.719570516514247
1.7281567416935324
1.7310748312133064
1.7310241136888427
1.7304176972211411
1.7288092942171507
1.726112421924387
1.7218840695454476
1.7158652986608773
1.7087681078466803
1.6997241348763874
1.6890287048768473
1.6772468417356816
1.6665963676813746
1.6541510654827172
1.640106864949489
1.6276807466867862
1.6184614087209335
1.611178912198609
1.5982173149689896
1.5706092899435973
-2.981419552575705
-1.8330247125760089
-1.1390488212086
-0.39519586531728823
0.1639066077011252
0.5975584245730865
0.9479658252620894
1.2148809391074504
1.378489395468559
1.5042214793056963
1.581140136860333
1.633668302113096
1.6577051349106673
1.6740069387735323
1.6869196619211955
1.696292210273909
1.7022079534283772
1.7056532124698878
1.7073646894826497
1.7075119294418672
1.7062903165444172
1.7040873827166225
1.7011765208270395
1.6978656448943006
1.6931294411648545
1.6885140250116255
1.6837692384198037
1.6792160497396187
1.6757078562063028
1.6733014285792065
1.6715445847381256
1.6709261320107918
1.6709355290119658
1.6726528039226498
1.6816429643675568
1.7118321637800205
1.8230273194806363
1.6691008372485086
-2.4762646107808806
-1.0095463659347657
0.036077615629908
0.5696586591366162
0.9000795555901688
1.1039071335100499
1.2581194508771114
1.377625300205752
1.4700562365896284
1.5395862467809867
1.587383931888395
1.6205466564658007
1.6445007592735512
1.6615876187261902
1.6730684370113
1.681109728339388
1.686663767504887
1.6903543521813706
1.692385352171641
1.6935058237743694
1.6945359293608562
1.6948210385528975
1.694312958601243
1.6934916501660255
1.6923951402324195
1.691137695816772
1.6904360949758523
1.6897154412730562
1.6904897433089336
1.6931030979022428
1.6999265020884498
1.7104642993973007
1.7226216918266957
1.7343041537709656
1.7488948418420784
1.8096851501670126
1.7083432196111668
1.795237012035882
-0.8594031846485661
-0.9998125664365352
-0.879447591211466
0.37173655735544175
0.8865911612759642
1.1032211225874051
1.237252847687197
1.3413109413391702
1.4246159961664264
1.49286424952449
1.5476204148528434
1.5900372927084774
1.6212144168399747
1.6426746642686814
1.6568377193954675
1.6658671531367037
1.670758961227418
1.6731766722492496
1.6737319589480475
1.6739278926996801
1.6740982730838008
1.6738912589203438
1.6747498353070407
1.6754229524961748
1.675892628560505
1.6771769181968086
1.6788651180621164
1.6806585699329855
1.6838978596109861
1.6884936514879638
1.6950456137718555
1.7054296040012469
1.724260978577183
1.757326756265704
1.7882377775142901
1.7930043410904828
1.7977706320541322
1.7253979232663845
1.728435112595183
1.6309959692311946
)
;

boundaryField
{
    ".*"
    {
        type            zeroGradient;
    }
}


// ************************************************************************* //
