/*--------------------------------*- C++ -*----------------------------------*\
  =========                 |
  \\      /  F ield         | OpenFOAM: The Open Source CFD Toolbox
   \\    /   O peration     | Website:  https://openfoam.org
    \\  /    A nd           | Version:  6
     \\/     M anipulation  |
\*---------------------------------------------------------------------------*/
FoamFile
{
    version     2.0;
    format      ascii;
    class       volScalarField;
    location    "1700";
    object      alphat;
}
// * * * * * * * * * * * * * * * * * * * * * * * * * * * * * * * * * * * * * //

dimensions      [1 -1 -1 0 0 0 0];

internalField   nonuniform List<scalar> 
459
(
0.00132473
0.00145246
0.00148094
0.00155421
0.0016229
0.00168808
0.00175314
0.00181267
0.00185252
0.00186589
0.00184696
0.00179216
0.00170038
0.00157692
0.00143712
0.000599636
0.00072477
0.000815464
0.000813586
0.00078662
0.000750243
0.000703673
0.000657343
0.000615311
0.000578026
0.000545034
0.000515743
0.000489712
0.000466354
0.000444845
0.000424141
0.000402782
0.000389376
0.000356702
0.00180137
0.00452504
0.00438071
0.00511577
0.00584033
0.00655328
0.00715602
0.00763001
0.00804712
0.00837424
0.00856933
0.00858901
0.0083672
0.00773363
0.00599375
0.00147709
0.000859108
0.00063708
0.00134056
0.00187121
0.00226022
0.00246977
0.00246151
0.001962
0.0016887
0.00149472
0.0013464
0.00122874
0.00113306
0.00105046
0.000973227
0.000897925
0.000830845
0.000771153
0.000915182
0.000472872
0.00219381
0.0061834
0.0054711
0.00684923
0.00754995
0.00807174
0.00847503
0.00881612
0.00917571
0.0095373
0.00985423
0.0100726
0.0101302
0.00992105
0.00914382
0.00692462
0.00151483
0.00123373
0.00180443
0.00233927
0.00282854
0.00316385
0.00307795
0.000999276
0.000881618
0.000786981
0.000710643
0.00064851
0.00059741
0.000555068
0.000520036
0.000491747
0.000531756
0.000615929
0.00103684
0.000551944
0.00256687
0.00785726
0.00553034
0.00725663
0.00786342
0.00809026
0.00825562
0.00846414
0.00877459
0.00916631
0.00957709
0.00994044
0.0101842
0.0102191
0.00997995
0.00911504
0.006211
0.00178709
0.00222668
0.00289601
0.00355945
0.0040908
0.00441134
0.00412108
0.0011236
0.00102283
0.000950684
0.000895199
0.000847392
0.000803848
0.000761889
0.000717915
0.000667081
0.000625595
0.000645013
0.00121321
0.000610631
0.00294489
0.00998073
0.00611591
0.00704895
0.00780997
0.00788865
0.00786115
0.0080146
0.00829914
0.00871642
0.0091839
0.00961217
0.00989546
0.00997134
0.00983393
0.00944533
0.00857884
0.00712883
0.00663195
0.00648058
0.00643573
0.00639838
0.00631195
0.00603708
0.00505572
0.00458535
0.0043086
0.00409203
0.00386536
0.0035403
0.00311681
0.00261622
0.00207058
0.00153092
0.00113125
0.00118952
0.000799327
0.000743996
0.000889041
0.000995474
0.00334383
0.0122823
0.00836058
0.00718425
0.00773884
0.00786893
0.00780982
0.00790751
0.00813184
0.00851844
0.00901807
0.00949685
0.00980451
0.00984975
0.00964643
0.00929815
0.00891851
0.00856793
0.00837526
0.00820785
0.00799218
0.00773351
0.00744056
0.00708936
0.00661286
0.0062022
0.00585009
0.0055229
0.00519804
0.00484404
0.00439811
0.00384332
0.00318355
0.00246447
0.0018395
0.00136812
0.00107021
0.000943437
0.00136568
0.00104401
0.00369745
0.0138391
0.0114942
0.00922664
0.00884259
0.00851648
0.00817794
0.00804511
0.00819233
0.00860723
0.00917706
0.00971154
0.0100199
0.009998
0.00968599
0.00927526
0.00901209
0.00897834
0.00899115
0.00884694
0.00852473
0.00809125
0.00759826
0.00707843
0.00656539
0.00611982
0.00573429
0.00538944
0.00507901
0.00480659
0.00456765
0.00418541
0.0036526
0.00301685
0.0024231
0.00188978
0.00153978
0.00147008
0.00154171
0.00120224
0.00375569
0.012053
0.0108966
0.0100734
0.00928384
0.00850069
0.00802422
0.00797668
0.00834057
0.00899415
0.00972986
0.0103011
0.0105155
0.0103144
0.00981623
0.0093217
0.00912498
0.00917109
0.00905985
0.00866248
0.00806967
0.00738331
0.00669091
0.00606733
0.00555619
0.0051554
0.0048343
0.00457383
0.0043717
0.00423457
0.0041688
0.00412311
0.00380648
0.00338399
0.00302709
0.00287691
0.00307735
0.00374216
0.00470807
0.00185572
0.00364539
0.00430173
0.00474107
0.00485383
0.00511246
0.00567964
0.006571
0.0077222
0.00897994
0.0101343
0.0109637
0.0112863
0.0110603
0.0104225
0.00969157
0.00924988
0.00898025
0.00867686
0.00816037
0.00743265
0.00660712
0.00580989
0.00513522
0.0046171
0.0042349
0.00394576
0.0037137
0.00351801
0.00334661
0.00319015
0.00304098
0.0029045
0.00279632
0.00272618
0.00271669
0.00275262
0.00275015
0.00263477
0.00244841
0.00170752
0.00172777
0.00438324
0.00792128
0.0102094
0.011712
0.0126263
0.0130014
0.0129177
0.0124647
0.0117374
0.0107202
0.00968527
0.00889068
0.00833863
0.00778572
0.0071036
0.00631457
0.00550412
0.00476002
0.0041607
0.00372379
0.00341592
0.00319465
0.00302822
0.0028982
0.0027959
0.00271855
0.0026675
0.00264841
0.00265826
0.00268421
0.00272292
0.00276155
0.00276366
0.00267427
0.00247421
0.00217784
0.00137601
0.00261542
0.00806265
0.0110417
0.0118069
0.0120312
0.0118448
0.0112802
0.0104749
0.00956247
0.00866755
0.00782528
0.00711653
0.00652775
0.00594096
0.00530456
0.00466526
0.00408033
0.00358776
0.00320104
0.00290705
0.00269909
0.00255655
0.0024633
0.00240983
0.00239032
0.00239959
0.00243098
0.00247932
0.00255292
0.00264626
0.00275507
0.00287072
0.00297408
0.00304758
0.00303485
0.00303816
0.00275056
0.00139308
0.00231426
0.00245547
0.00255686
0.0027372
0.00262214
0.00251916
0.00243483
0.00231367
0.00215084
0.00195587
0.001739
0.00151902
0.00132223
0.00116437
0.00104575
0.000958552
0.000894522
0.000847943
0.000815679
0.000795977
0.000787393
0.000788299
0.00079584
0.000809025
0.000827291
0.000850411
0.000878437
0.000911728
0.00095111
0.000997617
0.00105062
0.00111068
0.00117829
0.00125406
0.00133801
0.00144912
0.00148117
0.00144473
0.00134769
0.00124328
)
;

boundaryField
{
    floor
    {
        type            compressible::alphatWallFunction;
        Prt             0.85;
        value           nonuniform List<scalar> 
29
(
0.000202471
8.42872e-05
0.000102797
0.000115969
0.000115698
0.0001118
0.000106516
9.97055e-05
9.28761e-05
8.66295e-05
8.10445e-05
7.60655e-05
7.16135e-05
6.76306e-05
6.4034e-05
6.07018e-05
5.74751e-05
5.4125e-05
5.20111e-05
4.68186e-05
4.6818e-05
6.50409e-05
7.71128e-05
8.59328e-05
0.000202469
8.42862e-05
8.98713e-05
0.000174761
0.000249166
)
;
    }
    ceiling
    {
        type            compressible::alphatWallFunction;
        Prt             0.85;
        value           nonuniform List<scalar> 
43
(
0.000317543
0.000335589
0.000348483
0.000371437
0.00035697
0.000343935
0.000333212
0.000317727
0.000296773
0.000271448
0.000242953
0.000213642
0.000187016
0.000165334
0.000148819
0.000136541
0.000127442
0.000120775
0.000116132
0.000113285
0.000112043
0.000112174
0.000113266
0.000115172
0.000117806
0.00012113
0.000125146
0.000129896
0.000135489
0.000142059
0.000149503
0.000157886
0.000167261
0.000177695
0.000189172
0.000204238
0.000208561
0.000203648
0.000190493
0.00017622
0.000484349
0.00056392
0.000355661
)
;
    }
    sWall
    {
        type            compressible::alphatWallFunction;
        Prt             0.85;
        value           uniform 0.000316271;
    }
    nWall
    {
        type            compressible::alphatWallFunction;
        Prt             0.85;
        value           nonuniform List<scalar> 6(0.000141408 0.000148222 0.0001702 0.000193995 0.000196309 0.000175873);
    }
    sideWalls
    {
        type            empty;
    }
    glass1
    {
        type            compressible::alphatWallFunction;
        Prt             0.85;
        value           nonuniform List<scalar> 9(0.000182483 0.000245435 0.000296028 0.000343321 0.000390574 0.000439808 0.000482997 0.000490214 0.000477068);
    }
    glass2
    {
        type            compressible::alphatWallFunction;
        Prt             0.85;
        value           nonuniform List<scalar> 2(0.000256245 0.000236868);
    }
    sun
    {
        type            compressible::alphatWallFunction;
        Prt             0.85;
        value           nonuniform List<scalar> 
14
(
0.000187237
0.000204545
0.000208382
0.000218222
0.0002274
0.000236068
0.000244685
0.000252538
0.000257778
0.000259533
0.000257047
0.000249834
0.000237698
0.000221259
)
;
    }
    heatsource1
    {
        type            compressible::alphatWallFunction;
        Prt             0.85;
        value           nonuniform List<scalar> 3(0.000105758 0.000126686 0.000141782);
    }
    heatsource2
    {
        type            compressible::alphatWallFunction;
        Prt             0.85;
        value           nonuniform List<scalar> 4(0.000208038 0.0001224 0.000122399 0.000213111);
    }
    Table_master
    {
        type            compressible::alphatWallFunction;
        Prt             0.85;
        value           nonuniform List<scalar> 9(0.000142314 0.000125621 0.000112004 0.000100877 9.17133e-05 8.40967e-05 7.77244e-05 7.24065e-05 6.80794e-05);
    }
    Table_slave
    {
        type            compressible::alphatWallFunction;
        Prt             0.85;
        value           nonuniform List<scalar> 9(0.000159707 0.00014563 0.000135453 0.000127564 0.00012072 0.000114447 0.000108364 0.000101945 9.44654e-05);
    }
    inlet
    {
        type            fixedValue;
        value           uniform 1.94e-05;
    }
    outlet
    {
        type            zeroGradient;
    }
}


// ************************************************************************* //
