// -*- C++ -*-
// File generated by PyFoam - sorry for the ugliness

FoamFile
{
 version 2.0;
 format ascii;
 class volScalarField;
 location "1700";
 object T;
}

dimensions [ 0 0 0 1 0 0 0 ];

internalField nonuniform List<scalar> 459
(
  302.685
  302.405
  302.39
  302.386
  302.381
  302.377
  302.372
  302.365
  302.356
  302.346
  302.336
  302.328
  302.324
  302.325
  302.334
  302.47
  302.443
  302.433
  302.436
  302.442
  302.447
  302.453
  302.458
  302.463
  302.469
  302.474
  302.479
  302.484
  302.489
  302.494
  302.499
  302.505
  302.512
  302.537
  302.87
  302.446
  302.418
  302.418
  302.42
  302.419
  302.415
  302.406
  302.389
  302.366
  302.342
  302.323
  302.311
  302.307
  302.309
  302.309
  302.309
  302.473
  302.423
  302.415
  302.419
  302.426
  302.432
  302.435
  302.438
  302.44
  302.442
  302.444
  302.446
  302.448
  302.45
  302.453
  302.458
  302.466
  302.478
  302.518
  303.064
  302.499
  302.452
  302.46
  302.472
  302.48
  302.482
  302.471
  302.443
  302.402
  302.36
  302.326
  302.306
  302.299
  302.302
  302.307
  302.311
  302.398
  302.395
  302.404
  302.418
  302.432
  302.443
  302.443
  302.443
  302.443
  302.444
  302.444
  302.445
  302.445
  302.446
  302.447
  302.451
  302.456
  302.467
  302.51
  303.261
  302.567
  302.491
  302.504
  302.53
  302.554
  302.569
  302.556
  302.51
  302.443
  302.378
  302.328
  302.299
  302.292
  302.298
  302.309
  302.319
  302.335
  302.355
  302.383
  302.411
  302.438
  302.461
  302.478
  302.492
  302.504
  302.514
  302.524
  302.531
  302.537
  302.541
  302.545
  302.546
  302.514
  302.488
  302.477
  302.512
  303.453
  302.653
  302.539
  302.547
  302.585
  302.629
  302.66
  302.64
  302.57
  302.472
  302.385
  302.322
  302.289
  302.283
  302.295
  302.315
  302.337
  302.361
  302.39
  302.423
  302.456
  302.486
  302.511
  302.532
  302.55
  302.564
  302.576
  302.584
  302.59
  302.592
  302.59
  302.585
  302.576
  302.552
  302.519
  302.493
  302.509
  302.606
  302.651
  302.658
  303.626
  302.767
  302.625
  302.612
  302.653
  302.712
  302.736
  302.688
  302.59
  302.474
  302.372
  302.302
  302.27
  302.271
  302.295
  302.33
  302.366
  302.403
  302.441
  302.48
  302.515
  302.546
  302.571
  302.591
  302.607
  302.619
  302.628
  302.634
  302.637
  302.634
  302.627
  302.617
  302.603
  302.579
  302.547
  302.515
  302.512
  302.553
  302.572
  302.613
  303.788
  302.948
  302.81
  302.785
  302.802
  302.836
  302.796
  302.691
  302.552
  302.416
  302.311
  302.251
  302.236
  302.259
  302.306
  302.362
  302.416
  302.466
  302.511
  302.55
  302.584
  302.611
  302.632
  302.648
  302.66
  302.668
  302.674
  302.676
  302.675
  302.669
  302.658
  302.643
  302.626
  302.603
  302.574
  302.543
  302.529
  302.541
  302.554
  302.588
  304.021
  303.397
  303.248
  303.168
  303.098
  302.967
  302.782
  302.579
  302.395
  302.258
  302.182
  302.168
  302.2
  302.264
  302.344
  302.425
  302.494
  302.549
  302.592
  302.625
  302.651
  302.671
  302.686
  302.696
  302.703
  302.707
  302.709
  302.708
  302.704
  302.697
  302.686
  302.67
  302.654
  302.634
  302.611
  302.589
  302.583
  302.603
  302.629
  302.781
  304.357
  304.061
  303.764
  303.451
  303.074
  302.666
  302.326
  302.091
  301.969
  301.945
  301.996
  302.095
  302.21
  302.327
  302.442
  302.535
  302.595
  302.636
  302.666
  302.69
  302.707
  302.72
  302.729
  302.734
  302.737
  302.737
  302.736
  302.734
  302.73
  302.726
  302.724
  302.724
  302.726
  302.736
  302.754
  302.784
  302.826
  302.867
  302.893
  302.956
  293.354
  295.246
  297.229
  298.705
  299.776
  300.58
  301.19
  301.648
  301.989
  302.251
  302.407
  302.514
  302.592
  302.646
  302.683
  302.708
  302.727
  302.741
  302.75
  302.757
  302.761
  302.763
  302.764
  302.765
  302.765
  302.765
  302.765
  302.766
  302.768
  302.77
  302.776
  302.787
  302.805
  302.829
  302.859
  302.888
  302.909
  302.931
  294.546
  296.999
  299.193
  300.307
  301.013
  301.509
  301.865
  302.134
  302.337
  302.486
  302.584
  302.65
  302.695
  302.725
  302.746
  302.76
  302.77
  302.777
  302.781
  302.784
  302.785
  302.787
  302.787
  302.788
  302.789
  302.789
  302.79
  302.792
  302.793
  302.796
  302.8
  302.808
  302.82
  302.837
  302.858
  302.881
  302.879
  302.912
  298.288
  298.212
  298.206
  300.527
  301.452
  301.85
  302.094
  302.279
  302.424
  302.537
  302.624
  302.688
  302.732
  302.762
  302.782
  302.796
  302.805
  302.811
  302.814
  302.816
  302.817
  302.817
  302.817
  302.817
  302.816
  302.816
  302.815
  302.815
  302.814
  302.814
  302.814
  302.814
  302.816
  302.819
  302.825
  302.838
  302.849
  302.857
  302.861
  302.9
)
;

boundaryField
{
  floor
  {
    type wallHeatTransfer;
    Tinf uniform 305.2;
    alphaWall uniform 0.24;
    value nonuniform List<scalar> 29
(
  302.607
  302.959
  302.877
  302.833
  302.837
  302.852
  302.87
  302.894
  302.92
  302.945
  302.97
  302.994
  303.017
  303.039
  303.061
  303.082
  303.104
  303.128
  303.146
  303.199
  303.199
  303.079
  303.019
  302.987
  302.607
  302.959
  302.941
  302.697
  302.565
)
;
  }
  ceiling
  {
    type wallHeatTransfer;
    Tinf uniform 303.2;
    alphaWall uniform 0.24;
    value nonuniform List<scalar> 43
(
  298.609
  298.523
  298.507
  300.68
  301.555
  301.932
  302.163
  302.34
  302.478
  302.587
  302.671
  302.734
  302.779
  302.811
  302.833
  302.848
  302.858
  302.865
  302.87
  302.873
  302.874
  302.874
  302.874
  302.873
  302.871
  302.87
  302.868
  302.866
  302.864
  302.862
  302.86
  302.859
  302.858
  302.859
  302.862
  302.872
  302.881
  302.889
  302.894
  302.932
  304.305
  304.027
  295.058
)
;
  }
  sWall
  {
    type wallHeatTransfer;
    Tinf uniform 315.2;
    alphaWall uniform 0.36;
    value uniform 299.899;
  }
  nWall
  {
    type wallHeatTransfer;
    Tinf uniform 307.2;
    alphaWall uniform 0.36;
    value nonuniform List<scalar> 6
(
  303.463
  303.4
  303.304
  303.532
  303.51
  303.552
)
;
  }
  sideWalls
  {
    type empty;
  }
  glass1
  {
    type wallHeatTransfer;
    Tinf uniform 315.2;
    alphaWall uniform 4.3;
    value nonuniform List<scalar> 9
(
  311.117
  310.432
  310.006
  309.686
  309.421
  309.183
  309.016
  309.103
  309.355
)
;
  }
  glass2
  {
    type wallHeatTransfer;
    Tinf uniform 307.2;
    alphaWall uniform 4.3;
    value nonuniform List<scalar> 2
(
  305.45
  305.591
)
;
  }
  sun
  {
    type wallHeatTransfer;
    Tinf uniform 305.2;
    alphaWall uniform 0.24;
    value nonuniform List<scalar> 14
(
  302.94
  302.669
  302.651
  302.638
  302.625
  302.614
  302.602
  302.59
  302.578
  302.567
  302.56
  302.558
  302.564
  302.58
)
;
  }
  heatsource1
  {
    type fixedGradient;
    gradient uniform 0;
  }
  heatsource2
  {
    type fixedGradient;
    gradient uniform 0;
  }
  Table_master
  {
    type zeroGradient;
  }
  Table_slave
  {
    type zeroGradient;
  }
  inlet
  {
    type fixedValue;
    value uniform 290.15;
  }
  outlet
  {
    type zeroGradient;
  }
} 	// ************************************************************************* //

