// -*- C++ -*-
// File generated by PyFoam - sorry for the ugliness

FoamFile
{
 version 2.0;
 format ascii;
 class volVectorField;
 location "1700";
 object U;
}

dimensions [ 0 1 -1 0 0 0 0 ];

internalField nonuniform List<vector> 459
(
  (0.0331906 0.0882538 0)
  (-0.171716 0.0265235 0)
  (-0.196977 0.0178829 0)
  (-0.227718 0.0118914 0)
  (-0.249343 0.00534166 0)
  (-0.260891 -0.00150686 0)
  (-0.260907 -0.00866194 0)
  (-0.248747 -0.0160829 0)
  (-0.225359 -0.0230218 0)
  (-0.192804 -0.0283807 0)
  (-0.15453 -0.0313355 0)
  (-0.114313 -0.0316015 0)
  (-0.0757204 -0.029524 0)
  (-0.0437962 -0.0265188 0)
  (-0.0335886 -0.0243535 0)
  (-0.0030786 0.00870063 0)
  (-0.0279888 -0.0196221 0)
  (-0.00226274 -0.0296449 0)
  (0.0221528 -0.0221279 0)
  (0.0396224 -0.0149572 0)
  (0.0528808 -0.00959042 0)
  (0.0608638 -0.00570636 0)
  (0.0648714 -0.0036722 0)
  (0.0666603 -0.00280232 0)
  (0.067567 -0.00238516 0)
  (0.0681326 -0.00211228 0)
  (0.0684314 -0.00188782 0)
  (0.068394 -0.001619 0)
  (0.0678025 -0.00112503 0)
  (0.0660637 -7.30155e-06 0)
  (0.0619164 0.00228987 0)
  (0.0539948 0.00470253 0)
  (0.0467145 0.00668839 0)
  (-0.0141207 0.0229982 0)
  (0.209448 0.180297 0)
  (-0.158708 0.0697764 0)
  (-0.157423 0.0530092 0)
  (-0.188843 0.0403793 0)
  (-0.210044 0.0262174 0)
  (-0.221676 0.0105898 0)
  (-0.222232 -0.00659289 0)
  (-0.211058 -0.0244233 0)
  (-0.189673 -0.0404479 0)
  (-0.160463 -0.0522374 0)
  (-0.126905 -0.0582544 0)
  (-0.0924492 -0.0582401 0)
  (-0.0602313 -0.0527958 0)
  (-0.0336605 -0.0434709 0)
  (-0.0169957 -0.0321144 0)
  (-0.00334723 -0.0141263 0)
  (-0.00395073 0.017187 0)
  (0.0721575 0.0365722 0)
  (0.0316022 -0.0208321 0)
  (0.0394345 -0.0341609 0)
  (0.0515511 -0.0295076 0)
  (0.0610668 -0.0206097 0)
  (0.0675685 -0.0123177 0)
  (0.0702538 -0.00511821 0)
  (0.0706766 -0.00111725 0)
  (0.0705728 0.00055705 0)
  (0.0706547 0.00130461 0)
  (0.0708371 0.00175849 0)
  (0.070967 0.00213965 0)
  (0.0709955 0.00263076 0)
  (0.070867 0.00359481 0)
  (0.0700152 0.00599303 0)
  (0.0658506 0.0126484 0)
  (0.055394 0.0181939 0)
  (0.0506013 0.0219016 0)
  (-0.0551086 0.0495466 0)
  (0.370563 0.269257 0)
  (-0.173666 0.110492 0)
  (-0.11766 0.0852429 0)
  (-0.147515 0.0629646 0)
  (-0.165985 0.0397718 0)
  (-0.176242 0.014532 0)
  (-0.175762 -0.0131618 0)
  (-0.163744 -0.0413594 0)
  (-0.142871 -0.0657358 0)
  (-0.116142 -0.0826422 0)
  (-0.0870607 -0.0902491 0)
  (-0.0583144 -0.0888798 0)
  (-0.0319396 -0.0796338 0)
  (-0.0100222 -0.0643776 0)
  (0.00640708 -0.0435773 0)
  (0.017689 -0.0180079 0)
  (0.0234533 0.0189508 0)
  (0.120522 -0.0374434 0)
  (0.079631 -0.0449888 0)
  (0.0739558 -0.0428663 0)
  (0.0760495 -0.0353026 0)
  (0.0776781 -0.025697 0)
  (0.0787851 -0.0173806 0)
  (0.077161 -0.0138243 0)
  (0.072546 -0.00967194 0)
  (0.0693127 -0.00740991 0)
  (0.0678802 -0.00611068 0)
  (0.0672825 -0.00527629 0)
  (0.0669993 -0.0046902 0)
  (0.067051 -0.00414141 0)
  (0.0679384 -0.00324226 0)
  (0.0709424 8.60493e-05 0)
  (0.0685998 0.0182196 0)
  (0.0539238 0.0308351 0)
  (0.057146 0.0391298 0)
  (-0.0917318 0.0767432 0)
  (0.515332 0.340555 0)
  (-0.206529 0.146404 0)
  (-0.0764579 0.112288 0)
  (-0.103683 0.0816893 0)
  (-0.116364 0.0516421 0)
  (-0.122296 0.018186 0)
  (-0.117058 -0.0199292 0)
  (-0.101921 -0.058424 0)
  (-0.081223 -0.0898073 0)
  (-0.058106 -0.110041 0)
  (-0.0355244 -0.1178 0)
  (-0.0146447 -0.114649 0)
  (0.00419656 -0.101869 0)
  (0.0198338 -0.0823892 0)
  (0.0334486 -0.0583333 0)
  (0.048386 -0.0310543 0)
  (0.0710969 -0.000939624 0)
  (0.103765 0.0129158 0)
  (0.109795 -0.0293751 0)
  (0.0942193 -0.0390858 0)
  (0.0848069 -0.0365636 0)
  (0.0801673 -0.0308969 0)
  (0.0770284 -0.0234266 0)
  (0.0754215 -0.0143285 0)
  (0.0774792 -0.00851096 0)
  (0.0826032 -0.00651537 0)
  (0.0868094 -0.00535315 0)
  (0.0895418 -0.00443891 0)
  (0.0910439 -0.00333692 0)
  (0.0906675 -0.00177501 0)
  (0.0873824 0.000445912 0)
  (0.079942 0.0036288 0)
  (0.0653313 0.00838148 0)
  (0.0530258 0.0298209 0)
  (0.0403899 0.0473444 0)
  (0.0606304 0.0605842 0)
  (-0.134367 0.100064 0)
  (0.639461 0.395632 0)
  (-0.247011 0.175598 0)
  (-0.036725 0.127237 0)
  (-0.0579152 0.0917301 0)
  (-0.0620046 0.0575546 0)
  (-0.0595449 0.0175175 0)
  (-0.0426869 -0.0307373 0)
  (-0.02335 -0.0767113 0)
  (-0.00465983 -0.110894 0)
  (0.0118555 -0.130682 0)
  (0.0245294 -0.135741 0)
  (0.0345156 -0.12971 0)
  (0.042221 -0.114963 0)
  (0.0485334 -0.0941758 0)
  (0.054682 -0.0700042 0)
  (0.0625898 -0.0455912 0)
  (0.0749755 -0.0269368 0)
  (0.0858859 -0.0257748 0)
  (0.0869559 -0.0344214 0)
  (0.0798354 -0.0347378 0)
  (0.0711199 -0.0306821 0)
  (0.0643758 -0.0256024 0)
  (0.0596013 -0.0199002 0)
  (0.0570876 -0.013626 0)
  (0.0574002 -0.00770801 0)
  (0.0601216 -0.0048665 0)
  (0.063082 -0.0037001 0)
  (0.0658172 -0.00262157 0)
  (0.068172 -0.000598978 0)
  (0.0696666 0.00283512 0)
  (0.0690891 0.00771604 0)
  (0.065923 0.0141982 0)
  (0.0594743 0.0230227 0)
  (0.0518125 0.039462 0)
  (0.0402863 0.0591273 0)
  (0.0682516 0.0805852 0)
  (-0.0345438 0.112631 0)
  (0.0473829 0.0271572 0)
  (-0.0690669 -0.0378697 0)
  (-0.285882 -0.0614082 0)
  (0.728785 0.441289 0)
  (-0.28622 0.194778 0)
  (-0.00689701 0.12145 0)
  (-0.00959352 0.0895713 0)
  (-0.000633058 0.0540534 0)
  (0.0197975 0.00499089 0)
  (0.0495034 -0.050557 0)
  (0.0692452 -0.0946196 0)
  (0.0815363 -0.124144 0)
  (0.0870916 -0.139165 0)
  (0.0873014 -0.141071 0)
  (0.0839469 -0.132455 0)
  (0.0785354 -0.116126 0)
  (0.0726566 -0.0950016 0)
  (0.0677608 -0.0718346 0)
  (0.0651224 -0.04965 0)
  (0.065472 -0.0325296 0)
  (0.0656861 -0.0255077 0)
  (0.0617978 -0.0253623 0)
  (0.0540028 -0.0250405 0)
  (0.0454185 -0.0226994 0)
  (0.0384766 -0.0194527 0)
  (0.0336952 -0.015844 0)
  (0.0313315 -0.0120359 0)
  (0.0314648 -0.00881838 0)
  (0.0335946 -0.00757233 0)
  (0.036618 -0.00724675 0)
  (0.0400844 -0.00649553 0)
  (0.0437585 -0.00426365 0)
  (0.0474619 0.000281549 0)
  (0.050254 0.0071249 0)
  (0.0514237 0.0158941 0)
  (0.0513084 0.0269355 0)
  (0.0514652 0.0422071 0)
  (0.0491258 0.0613448 0)
  (0.0763926 0.0861555 0)
  (0.0488306 0.105379 0)
  (0.0974233 0.0698845 0)
  (0.122158 0.0453676 0)
  (-0.138447 -0.0100771 0)
  (0.785651 0.483036 0)
  (-0.304049 0.179189 0)
  (0.0240991 0.0652034 0)
  (0.0578778 0.0549497 0)
  (0.0841771 0.0289621 0)
  (0.128342 -0.0251759 0)
  (0.156968 -0.0734583 0)
  (0.170736 -0.107733 0)
  (0.171684 -0.127926 0)
  (0.162506 -0.135426 0)
  (0.146373 -0.132089 0)
  (0.126394 -0.12036 0)
  (0.105262 -0.103012 0)
  (0.0852184 -0.0827007 0)
  (0.067855 -0.0616329 0)
  (0.0541503 -0.0422293 0)
  (0.044329 -0.0274307 0)
  (0.0367587 -0.0196548 0)
  (0.0291448 -0.0173376 0)
  (0.020975 -0.0166304 0)
  (0.0133924 -0.0154792 0)
  (0.00748447 -0.0139939 0)
  (0.00357212 -0.0124527 0)
  (0.00178373 -0.0109875 0)
  (0.0020628 -0.0100731 0)
  (0.00390491 -0.0102087 0)
  (0.00660958 -0.0106874 0)
  (0.00991094 -0.0105465 0)
  (0.0138405 -0.00885462 0)
  (0.0185272 -0.00454498 0)
  (0.0252242 0.00326543 0)
  (0.030854 0.0128952 0)
  (0.0363742 0.0240095 0)
  (0.0436874 0.0375274 0)
  (0.0510507 0.0531325 0)
  (0.0761839 0.0733191 0)
  (0.0885014 0.0807164 0)
  (0.125248 0.0524831 0)
  (0.167809 0.0429081 0)
  (-0.032167 0.0966775 0)
  (0.893608 0.482428 0)
  (-0.0560873 0.157547 0)
  (0.119606 -0.023692 0)
  (0.208178 -0.0598431 0)
  (0.254237 -0.0733509 0)
  (0.279094 -0.0899918 0)
  (0.287777 -0.105345 0)
  (0.279766 -0.115029 0)
  (0.25727 -0.117914 0)
  (0.22456 -0.114221 0)
  (0.186358 -0.104802 0)
  (0.146771 -0.0909079 0)
  (0.109092 -0.0743805 0)
  (0.0756311 -0.0570124 0)
  (0.0476008 -0.0400229 0)
  (0.0257628 -0.0251437 0)
  (0.0102052 -0.0147148 0)
  (-0.00060073 -0.00974058 0)
  (-0.00866175 -0.00876509 0)
  (-0.0154165 -0.0090829 0)
  (-0.0210433 -0.00938521 0)
  (-0.0253346 -0.00958991 0)
  (-0.0282619 -0.00982072 0)
  (-0.0298489 -0.0101957 0)
  (-0.0302447 -0.0109084 0)
  (-0.029841 -0.012019 0)
  (-0.0290381 -0.0131615 0)
  (-0.027937 -0.0138426 0)
  (-0.0263513 -0.0135501 0)
  (-0.023831 -0.011674 0)
  (-0.0192156 -0.00741907 0)
  (-0.00874376 -0.000135005 0)
  (-0.000455981 0.00858091 0)
  (0.0107597 0.017182 0)
  (0.0223447 0.0248872 0)
  (0.0436593 0.0336741 0)
  (0.062307 0.0259139 0)
  (0.0813158 -0.0055341 0)
  (0.142903 0.04477 0)
  (-0.454774 0.221837 0)
  (1.04589 0.426874 0)
  (0.495427 0.278707 0)
  (0.514602 0.172808 0)
  (0.549703 0.094539 0)
  (0.529636 0.0405654 0)
  (0.481842 -0.00212519 0)
  (0.426602 -0.0332809 0)
  (0.366226 -0.0521855 0)
  (0.301558 -0.0601699 0)
  (0.235991 -0.0597711 0)
  (0.173629 -0.0536973 0)
  (0.117372 -0.0439451 0)
  (0.0694738 -0.0326879 0)
  (0.0304155 -0.0216037 0)
  (-0.000549223 -0.0115493 0)
  (-0.0216271 -0.00478734 0)
  (-0.0336698 -0.00196149 0)
  (-0.0410579 -0.00156642 0)
  (-0.0463469 -0.00250626 0)
  (-0.0508778 -0.00385848 0)
  (-0.05485 -0.00518882 0)
  (-0.0582571 -0.00646722 0)
  (-0.0611382 -0.00772536 0)
  (-0.0636034 -0.00899379 0)
  (-0.065866 -0.0102941 0)
  (-0.0682606 -0.0115433 0)
  (-0.0711322 -0.0124601 0)
  (-0.0747714 -0.0126346 0)
  (-0.079501 -0.0115468 0)
  (-0.085815 -0.00852638 0)
  (-0.0944194 -0.00276781 0)
  (-0.104923 0.00624579 0)
  (-0.115869 0.0181378 0)
  (-0.133158 0.0332451 0)
  (-0.160469 0.0513681 0)
  (-0.200214 0.0704343 0)
  (-0.256361 0.0851141 0)
  (-0.319659 0.0924357 0)
  (-0.391245 0.0931354 0)
  (-0.659894 0.087736 0)
  (-0.180114 -0.0206853 0)
  (0.100196 -0.0358609 0)
  (0.177069 -0.055237 0)
  (0.164119 -0.0476827 0)
  (0.144871 -0.0345304 0)
  (0.120773 -0.0225958 0)
  (0.0888452 -0.0124237 0)
  (0.0530615 -0.00450636 0)
  (0.0182527 0.000908741 0)
  (-0.0145849 0.00444983 0)
  (-0.0381858 0.00562618 0)
  (-0.0553959 0.00559896 0)
  (-0.0664255 0.00452522 0)
  (-0.0722499 0.00236215 0)
  (-0.0755585 -0.000204417 0)
  (-0.0779083 -0.00283823 0)
  (-0.0801099 -0.00548816 0)
  (-0.0825961 -0.00791316 0)
  (-0.085486 -0.0098273 0)
  (-0.0885542 -0.0112709 0)
  (-0.0917403 -0.0123218 0)
  (-0.0951642 -0.0130276 0)
  (-0.0989923 -0.0134089 0)
  (-0.103388 -0.0133846 0)
  (-0.108436 -0.0127124 0)
  (-0.114075 -0.0109985 0)
  (-0.120054 -0.00773906 0)
  (-0.125901 -0.00238208 0)
  (-0.130886 0.00542012 0)
  (-0.134644 0.0160344 0)
  (-0.137636 0.030468 0)
  (-0.140439 0.0491853 0)
  (-0.144176 0.0711369 0)
  (-0.149477 0.0917002 0)
  (-0.152835 0.0994182 0)
  (-0.135077 0.0722822 0)
  (-0.0822684 -0.0314499 0)
  (-0.289089 -0.225264 0)
  (0.036048 0.197936 0)
  (0.0134346 0.0636824 0)
  (-0.0322538 0.0117685 0)
  (-0.0558906 0.0109821 0)
  (-0.0741612 0.0170601 0)
  (-0.0876234 0.021637 0)
  (-0.0966724 0.0254074 0)
  (-0.103473 0.0285481 0)
  (-0.108354 0.0304841 0)
  (-0.111591 0.0309595 0)
  (-0.112965 0.0304709 0)
  (-0.113002 0.0302386 0)
  (-0.111933 0.0304383 0)
  (-0.110344 0.0311138 0)
  (-0.108861 0.0324469 0)
  (-0.107759 0.0342719 0)
  (-0.107183 0.0360993 0)
  (-0.107177 0.037358 0)
  (-0.107651 0.0374691 0)
  (-0.108618 0.0364424 0)
  (-0.110036 0.0349603 0)
  (-0.111878 0.0331953 0)
  (-0.114111 0.0312419 0)
  (-0.116676 0.0291903 0)
  (-0.119467 0.0271464 0)
  (-0.122299 0.0252226 0)
  (-0.124874 0.0235062 0)
  (-0.12664 0.0222469 0)
  (-0.126689 0.0228644 0)
  (-0.123707 0.0266498 0)
  (-0.11608 0.034771 0)
  (-0.102642 0.0483329 0)
  (-0.0837415 0.0671276 0)
  (-0.0606594 0.0862002 0)
  (-0.0364384 0.097133 0)
  (0.00690845 0.0796954 0)
  (0.144593 0.0034951 0)
  (-0.20783 -0.138083 0)
  (-0.0921175 -0.346862 0)
  (-0.447038 -0.138556 0)
  (-0.333822 0.0443443 0)
  (-0.292068 -0.0442778 0)
  (-0.251265 -0.0508166 0)
  (-0.240003 -0.0435009 0)
  (-0.232031 -0.0365559 0)
  (-0.222769 -0.0322137 0)
  (-0.211187 -0.030086 0)
  (-0.197568 -0.0302923 0)
  (-0.182901 -0.0333746 0)
  (-0.168601 -0.0393378 0)
  (-0.1559 -0.0474045 0)
  (-0.145417 -0.0562858 0)
  (-0.137233 -0.0654176 0)
  (-0.131178 -0.074512 0)
  (-0.126854 -0.0831487 0)
  (-0.123799 -0.0908629 0)
  (-0.12167 -0.097178 0)
  (-0.120291 -0.10163 0)
  (-0.119633 -0.103906 0)
  (-0.119709 -0.104031 0)
  (-0.120451 -0.102751 0)
  (-0.121682 -0.100297 0)
  (-0.123233 -0.0968344 0)
  (-0.124916 -0.0924439 0)
  (-0.126478 -0.0871081 0)
  (-0.127569 -0.0806925 0)
  (-0.127736 -0.0729159 0)
  (-0.126371 -0.0635806 0)
  (-0.122342 -0.0532728 0)
  (-0.113489 -0.0418114 0)
  (-0.0968588 -0.0286687 0)
  (-0.0703309 -0.0128607 0)
  (-0.0353088 0.00635483 0)
  (0.0238708 0.031066 0)
  (0.0744552 0.0319008 0)
  (0.123048 0.0101994 0)
  (0.176632 -0.030626 0)
  (-0.178441 -0.0988306 0)
)
;

boundaryField
{
  floor
  {
    type noSlip;
  }
  ceiling
  {
    type noSlip;
  }
  sWall
  {
    type noSlip;
  }
  nWall
  {
    type noSlip;
  }
  sideWalls
  {
    type empty;
  }
  glass1
  {
    type noSlip;
  }
  glass2
  {
    type noSlip;
  }
  sun
  {
    type noSlip;
  }
  heatsource1
  {
    type noSlip;
  }
  heatsource2
  {
    type noSlip;
  }
  Table_master
  {
    type noSlip;
  }
  Table_slave
  {
    type noSlip;
  }
  inlet
  {
    type fixedValue;
    value uniform (0.277164 -0.114805 0);
  }
  outlet
  {
    type zeroGradient;
  }
} 	// ************************************************************************* //

