// -*- C++ -*-
// File generated by PyFoam - sorry for the ugliness

FoamFile
{
 version 2.0;
 format ascii;
 class volVectorField;
 location "600";
 object U;
}

dimensions [ 0 1 -1 0 0 0 0 ];

internalField nonuniform List<vector> 459
(
  (0.0420294 0.0851442 0)
  (-0.165416 0.023416 0)
  (-0.185872 0.0173334 0)
  (-0.215867 0.0128656 0)
  (-0.239165 0.00781758 0)
  (-0.255188 0.00250021 0)
  (-0.262914 -0.00320805 0)
  (-0.260829 -0.00942411 0)
  (-0.248267 -0.0161913 0)
  (-0.22546 -0.0228731 0)
  (-0.193795 -0.0286059 0)
  (-0.155557 -0.0329046 0)
  (-0.113536 -0.0362598 0)
  (-0.0739424 -0.0406816 0)
  (-0.0559423 -0.047488 0)
  (0.0108244 0.0073897 0)
  (-0.0173084 -0.0206848 0)
  (0.0109029 -0.0270554 0)
  (0.0300403 -0.0187937 0)
  (0.0453775 -0.0120503 0)
  (0.0552961 -0.00751224 0)
  (0.0603643 -0.00467147 0)
  (0.0625277 -0.00320643 0)
  (0.0634072 -0.00250358 0)
  (0.0638295 -0.00212189 0)
  (0.0640195 -0.00187369 0)
  (0.0639853 -0.00166913 0)
  (0.0636627 -0.00141765 0)
  (0.0628425 -0.000955651 0)
  (0.0609652 8.75865e-05 0)
  (0.0568752 0.00221521 0)
  (0.0493312 0.00431272 0)
  (0.0442308 0.00529033 0)
  (-0.0197424 0.0214501 0)
  (0.223942 0.174919 0)
  (-0.157248 0.0621977 0)
  (-0.149415 0.0501642 0)
  (-0.180393 0.0408728 0)
  (-0.203019 0.0304818 0)
  (-0.218782 0.0191083 0)
  (-0.226835 0.00625473 0)
  (-0.225542 -0.00840101 0)
  (-0.214237 -0.0241213 0)
  (-0.193593 -0.0388387 0)
  (-0.165436 -0.0502828 0)
  (-0.132636 -0.0570067 0)
  (-0.0987034 -0.0589717 0)
  (-0.0686326 -0.0576378 0)
  (-0.049058 -0.0524977 0)
  (-0.032081 -0.0302499 0)
  (-0.0102501 0.00122054 0)
  (0.0885884 0.0224585 0)
  (0.0421136 -0.0197962 0)
  (0.0443285 -0.0286521 0)
  (0.0546241 -0.0226325 0)
  (0.0622326 -0.0142589 0)
  (0.0663875 -0.00723469 0)
  (0.0676423 -0.0024455 0)
  (0.0675073 5.05718e-05 0)
  (0.0672765 0.00118136 0)
  (0.0672643 0.00176229 0)
  (0.0673327 0.00214965 0)
  (0.0673609 0.00248511 0)
  (0.0673183 0.0029355 0)
  (0.0671517 0.00384109 0)
  (0.0663139 0.00608815 0)
  (0.0623549 0.0123319 0)
  (0.0523394 0.0172349 0)
  (0.0502604 0.019253 0)
  (-0.0616339 0.0469836 0)
  (0.389661 0.261885 0)
  (-0.178446 0.100157 0)
  (-0.111721 0.0812825 0)
  (-0.141937 0.0639397 0)
  (-0.161339 0.0467151 0)
  (-0.175404 0.0283618 0)
  (-0.183064 0.00762 0)
  (-0.181721 -0.015963 0)
  (-0.170431 -0.0409372 0)
  (-0.150653 -0.0636092 0)
  (-0.124857 -0.0802987 0)
  (-0.0961121 -0.0890195 0)
  (-0.0676113 -0.0895551 0)
  (-0.0424599 -0.0829551 0)
  (-0.0230416 -0.068644 0)
  (-0.0075702 -0.0437746 0)
  (0.00980085 -0.00905598 0)
  (0.11275 -0.0568565 0)
  (0.069224 -0.0496105 0)
  (0.0647887 -0.0395924 0)
  (0.0683002 -0.0289361 0)
  (0.0704259 -0.0188069 0)
  (0.0709218 -0.0105485 0)
  (0.0690597 -0.00879177 0)
  (0.0662245 -0.00659912 0)
  (0.0645395 -0.0054509 0)
  (0.0639342 -0.00481689 0)
  (0.0638094 -0.00443047 0)
  (0.063909 -0.00413935 0)
  (0.0643034 -0.00378735 0)
  (0.0654537 -0.00305717 0)
  (0.0685679 -5.58827e-05 0)
  (0.0665052 0.0172516 0)
  (0.0522619 0.0291199 0)
  (0.0586698 0.0355351 0)
  (-0.0979182 0.0731164 0)
  (0.536726 0.331873 0)
  (-0.21694 0.134664 0)
  (-0.0719745 0.107268 0)
  (-0.1012 0.0828568 0)
  (-0.114407 0.0610466 0)
  (-0.124349 0.0378444 0)
  (-0.129914 0.0104871 0)
  (-0.126502 -0.0220024 0)
  (-0.113768 -0.056419 0)
  (-0.0946582 -0.0863072 0)
  (-0.0722737 -0.106906 0)
  (-0.0492104 -0.11644 0)
  (-0.0278169 -0.115142 0)
  (-0.00925085 -0.104734 0)
  (0.00692144 -0.0851483 0)
  (0.0221571 -0.0594919 0)
  (0.0450292 -0.0324664 0)
  (0.0774143 -0.0036572 0)
  (0.0879448 -0.0394331 0)
  (0.0735127 -0.0413347 0)
  (0.0664664 -0.0334866 0)
  (0.0648893 -0.0255057 0)
  (0.0646088 -0.017508 0)
  (0.0658201 -0.00864959 0)
  (0.0693901 -0.0055049 0)
  (0.0743602 -0.00511057 0)
  (0.0788456 -0.00485561 0)
  (0.0825866 -0.00445319 0)
  (0.085348 -0.00364986 0)
  (0.0863629 -0.00227524 0)
  (0.0842567 -0.000148055 0)
  (0.0778672 0.0029442 0)
  (0.0645067 0.00751286 0)
  (0.0528104 0.0282073 0)
  (0.0398456 0.0451721 0)
  (0.0632149 0.0571845 0)
  (-0.142835 0.0958195 0)
  (0.660766 0.386558 0)
  (-0.260818 0.163935 0)
  (-0.0332413 0.121463 0)
  (-0.058876 0.0930515 0)
  (-0.0636438 0.0688912 0)
  (-0.0668579 0.0431368 0)
  (-0.0678059 0.0110844 0)
  (-0.0578263 -0.0295735 0)
  (-0.0424637 -0.0719651 0)
  (-0.0252898 -0.106114 0)
  (-0.00887679 -0.127563 0)
  (0.00570399 -0.135604 0)
  (0.0171029 -0.131337 0)
  (0.025986 -0.118037 0)
  (0.0333417 -0.09789 0)
  (0.041017 -0.0740097 0)
  (0.0516304 -0.0515418 0)
  (0.0632262 -0.0399955 0)
  (0.0664575 -0.0434464 0)
  (0.0607774 -0.0388796 0)
  (0.0538828 -0.030862 0)
  (0.0497089 -0.023547 0)
  (0.0477376 -0.017173 0)
  (0.0480154 -0.0114795 0)
  (0.0504689 -0.00773225 0)
  (0.0545485 -0.00625638 0)
  (0.0587528 -0.0056511 0)
  (0.0628025 -0.0047434 0)
  (0.0664015 -0.00272524 0)
  (0.0689806 0.00094192 0)
  (0.0692752 0.00615177 0)
  (0.066589 0.0128509 0)
  (0.0604136 0.021625 0)
  (0.0528227 0.0376486 0)
  (0.0405274 0.0570097 0)
  (0.0702071 0.0782503 0)
  (-0.0393127 0.109352 0)
  (0.045164 0.021431 0)
  (-0.071613 -0.0393222 0)
  (-0.284761 -0.0626244 0)
  (0.747215 0.432828 0)
  (-0.300823 0.184622 0)
  (-0.00534757 0.115972 0)
  (-0.0152174 0.0925739 0)
  (-0.00923529 0.0704759 0)
  (-0.00377613 0.0438426 0)
  (0.00402263 0.00618362 0)
  (0.0257835 -0.0432118 0)
  (0.0420324 -0.0877268 0)
  (0.0539291 -0.120086 0)
  (0.0610469 -0.138182 0)
  (0.0636906 -0.142755 0)
  (0.0628549 -0.135999 0)
  (0.0598377 -0.120867 0)
  (0.0559782 -0.100252 0)
  (0.0527734 -0.0774327 0)
  (0.0513901 -0.0563327 0)
  (0.0507936 -0.0419388 0)
  (0.047224 -0.0358312 0)
  (0.0400417 -0.0307857 0)
  (0.0325861 -0.02492 0)
  (0.0275382 -0.0197238 0)
  (0.0251003 -0.0156007 0)
  (0.0251626 -0.0123346 0)
  (0.0273349 -0.0104183 0)
  (0.0308847 -0.0101276 0)
  (0.0349687 -0.0102102 0)
  (0.0393234 -0.00953797 0)
  (0.0437746 -0.00721018 0)
  (0.0479885 -0.00238925 0)
  (0.0516045 0.00507174 0)
  (0.0530465 0.0143905 0)
  (0.0528202 0.0255804 0)
  (0.0527941 0.0406338 0)
  (0.0498223 0.0595733 0)
  (0.0782026 0.0847088 0)
  (0.0477769 0.103888 0)
  (0.0967115 0.068754 0)
  (0.121892 0.0445593 0)
  (-0.141213 -0.0124491 0)
  (0.794151 0.475243 0)
  (-0.31856 0.171105 0)
  (0.0194797 0.0631226 0)
  (0.0441152 0.0676364 0)
  (0.0599231 0.0606035 0)
  (0.0740692 0.0337087 0)
  (0.100447 -0.0112793 0)
  (0.122493 -0.0600219 0)
  (0.134854 -0.0993638 0)
  (0.137516 -0.125174 0)
  (0.131918 -0.137164 0)
  (0.120085 -0.136973 0)
  (0.104387 -0.127164 0)
  (0.0870757 -0.110599 0)
  (0.0700714 -0.0901747 0)
  (0.0548413 -0.0687793 0)
  (0.0422426 -0.0493774 0)
  (0.0320669 -0.0351777 0)
  (0.0226503 -0.0271601 0)
  (0.0136692 -0.0224004 0)
  (0.00630188 -0.0186419 0)
  (0.00156225 -0.015892 0)
  (-0.000702229 -0.0141672 0)
  (-0.000833909 -0.0132224 0)
  (0.000688578 -0.0131064 0)
  (0.00322765 -0.0137733 0)
  (0.00627431 -0.0144112 0)
  (0.00975495 -0.0142087 0)
  (0.0138001 -0.0123345 0)
  (0.0185772 -0.00774064 0)
  (0.0252545 0.000606448 0)
  (0.0317939 0.0112587 0)
  (0.0374455 0.0228685 0)
  (0.0447241 0.0362782 0)
  (0.0520033 0.0516088 0)
  (0.0782238 0.0721344 0)
  (0.0900628 0.0800608 0)
  (0.126274 0.0527971 0)
  (0.168396 0.0419762 0)
  (-0.0339786 0.0943397 0)
  (0.898434 0.47953 0)
  (-0.074551 0.152346 0)
  (0.107362 -0.0169804 0)
  (0.176968 -0.0243666 0)
  (0.188436 -0.0169402 0)
  (0.200395 -0.0353437 0)
  (0.225851 -0.0626143 0)
  (0.238849 -0.0881617 0)
  (0.236053 -0.107575 0)
  (0.219916 -0.11859 0)
  (0.194297 -0.12065 0)
  (0.163048 -0.114679 0)
  (0.129696 -0.102495 0)
  (0.0970332 -0.0860313 0)
  (0.0671832 -0.0674781 0)
  (0.0413793 -0.0490328 0)
  (0.020297 -0.0328797 0)
  (0.00430183 -0.0216436 0)
  (-0.00779983 -0.0160077 0)
  (-0.0160897 -0.0138975 0)
  (-0.0220055 -0.0129012 0)
  (-0.0258426 -0.0125993 0)
  (-0.0280875 -0.0128427 0)
  (-0.0291317 -0.0134754 0)
  (-0.0293387 -0.0144544 0)
  (-0.0290902 -0.0156624 0)
  (-0.0286309 -0.0167355 0)
  (-0.0279395 -0.017235 0)
  (-0.026773 -0.0166762 0)
  (-0.0246569 -0.0144813 0)
  (-0.0204365 -0.00991259 0)
  (-0.00999844 -0.00222808 0)
  (0.000226938 0.0073905 0)
  (0.0119651 0.016396 0)
  (0.0244114 0.0237178 0)
  (0.0477777 0.0323933 0)
  (0.068516 0.0259287 0)
  (0.088344 -0.00180355 0)
  (0.149145 0.0494015 0)
  (-0.46942 0.215806 0)
  (1.04433 0.429825 0)
  (0.49649 0.281941 0)
  (0.513233 0.183896 0)
  (0.535055 0.125708 0)
  (0.505246 0.0876993 0)
  (0.46727 0.0491521 0)
  (0.428415 0.00823431 0)
  (0.382479 -0.0281429 0)
  (0.330534 -0.0547666 0)
  (0.275122 -0.0698453 0)
  (0.219339 -0.0743027 0)
  (0.165764 -0.0706059 0)
  (0.116514 -0.0615551 0)
  (0.07277 -0.0491412 0)
  (0.0358075 -0.035374 0)
  (0.0055745 -0.0221625 0)
  (-0.0172097 -0.0121681 0)
  (-0.030623 -0.00804575 0)
  (-0.039401 -0.00733628 0)
  (-0.0454704 -0.00810531 0)
  (-0.05004 -0.00916327 0)
  (-0.0536198 -0.010276 0)
  (-0.0566221 -0.0114179 0)
  (-0.0593544 -0.0125841 0)
  (-0.0620877 -0.0137615 0)
  (-0.0650958 -0.0148397 0)
  (-0.0686169 -0.0155488 0)
  (-0.0728504 -0.0154983 0)
  (-0.0780309 -0.014192 0)
  (-0.0845188 -0.0110187 0)
  (-0.0927909 -0.00526411 0)
  (-0.103123 0.00359678 0)
  (-0.113072 0.0149147 0)
  (-0.127883 0.0286537 0)
  (-0.15192 0.0447137 0)
  (-0.18719 0.0617971 0)
  (-0.238545 0.0755828 0)
  (-0.300492 0.0840935 0)
  (-0.378467 0.0880149 0)
  (-0.652756 0.0825156 0)
  (-0.259294 0.00149774 0)
  (0.1306 0.031232 0)
  (0.231952 0.0189758 0)
  (0.223124 0.00372179 0)
  (0.202989 -0.0111102 0)
  (0.186943 -0.0220584 0)
  (0.162077 -0.0280111 0)
  (0.130761 -0.0298259 0)
  (0.0959892 -0.0282108 0)
  (0.060346 -0.0240219 0)
  (0.0262717 -0.0181314 0)
  (-0.0063305 -0.0109857 0)
  (-0.0313713 -0.0055367 0)
  (-0.0477935 -0.00342246 0)
  (-0.0577939 -0.00410897 0)
  (-0.0636683 -0.00657747 0)
  (-0.068033 -0.00919349 0)
  (-0.0718094 -0.0111313 0)
  (-0.0752003 -0.0125178 0)
  (-0.0785611 -0.0134973 0)
  (-0.0821543 -0.0142084 0)
  (-0.0861456 -0.014721 0)
  (-0.0906633 -0.01503 0)
  (-0.0958077 -0.0150262 0)
  (-0.101609 -0.0144608 0)
  (-0.107978 -0.0129445 0)
  (-0.114655 -0.00997356 0)
  (-0.121162 -0.00499346 0)
  (-0.126797 0.0025582 0)
  (-0.130627 0.012655 0)
  (-0.133416 0.0261383 0)
  (-0.135533 0.0434108 0)
  (-0.137886 0.0638543 0)
  (-0.140681 0.0844297 0)
  (-0.140242 0.0967851 0)
  (-0.11853 0.0864431 0)
  (-0.0466942 0.0289047 0)
  (-0.209757 -0.185452 0)
  (-0.0274333 0.211402 0)
  (0.0478607 0.090454 0)
  (-0.00182259 0.0307336 0)
  (0.000695614 0.0297986 0)
  (-0.000429674 0.0248034 0)
  (-0.0080436 0.0169701 0)
  (-0.0153552 0.0119916 0)
  (-0.0299 0.0120503 0)
  (-0.0470809 0.0155906 0)
  (-0.0633953 0.0207953 0)
  (-0.0764587 0.0262298 0)
  (-0.0850817 0.0305895 0)
  (-0.0890898 0.0333762 0)
  (-0.0905385 0.035832 0)
  (-0.0905135 0.0380449 0)
  (-0.0902076 0.0395799 0)
  (-0.0903916 0.0398699 0)
  (-0.0912095 0.0382931 0)
  (-0.092659 0.036544 0)
  (-0.0946693 0.0348478 0)
  (-0.0971658 0.033079 0)
  (-0.100088 0.0311765 0)
  (-0.103389 0.0291581 0)
  (-0.107003 0.0271025 0)
  (-0.110815 0.0251231 0)
  (-0.114632 0.0233399 0)
  (-0.118167 0.021856 0)
  (-0.120942 0.0207117 0)
  (-0.122087 0.0208291 0)
  (-0.120378 0.0238515 0)
  (-0.114358 0.030799 0)
  (-0.102844 0.0424264 0)
  (-0.0859842 0.0585101 0)
  (-0.0653905 0.0752161 0)
  (-0.0434983 0.0828371 0)
  (0.0362219 0.0362183 0)
  (0.150681 -0.0572467 0)
  (-0.0521247 -0.062721 0)
  (-0.0798433 -0.344227 0)
  (-0.442259 -0.134862 0)
  (-0.330317 0.0525349 0)
  (-0.260008 -0.0492325 0)
  (-0.214033 -0.0626504 0)
  (-0.18607 -0.0568954 0)
  (-0.169122 -0.0548832 0)
  (-0.158968 -0.0548103 0)
  (-0.153278 -0.0540352 0)
  (-0.149149 -0.0525272 0)
  (-0.144472 -0.0524165 0)
  (-0.138493 -0.0546601 0)
  (-0.13135 -0.0594492 0)
  (-0.123781 -0.0667816 0)
  (-0.116786 -0.0763301 0)
  (-0.111082 -0.0868447 0)
  (-0.106892 -0.0969761 0)
  (-0.104231 -0.105075 0)
  (-0.102971 -0.109906 0)
  (-0.103013 -0.111206 0)
  (-0.104156 -0.110573 0)
  (-0.10597 -0.108656 0)
  (-0.108189 -0.105749 0)
  (-0.110664 -0.102021 0)
  (-0.113288 -0.0975732 0)
  (-0.115936 -0.0924539 0)
  (-0.11841 -0.0866426 0)
  (-0.120396 -0.0800238 0)
  (-0.121453 -0.0723483 0)
  (-0.121007 -0.0632042 0)
  (-0.118145 -0.0529994 0)
  (-0.111066 -0.0419168 0)
  (-0.0971441 -0.0296145 0)
  (-0.0741649 -0.0153912 0)
  (-0.0424624 0.00131106 0)
  (0.00165486 0.0200868 0)
  (0.044077 0.0130412 0)
  (0.106697 -0.0416603 0)
  (0.119924 -0.0841963 0)
  (-0.51795 0.0133604 0)
)
;

boundaryField
{
  floor
  {
    type noSlip;
  }
  ceiling
  {
    type noSlip;
  }
  sWall
  {
    type noSlip;
  }
  nWall
  {
    type noSlip;
  }
  sideWalls
  {
    type empty;
  }
  glass1
  {
    type noSlip;
  }
  glass2
  {
    type noSlip;
  }
  sun
  {
    type noSlip;
  }
  heatsource1
  {
    type noSlip;
  }
  heatsource2
  {
    type noSlip;
  }
  Table_master
  {
    type noSlip;
  }
  Table_slave
  {
    type noSlip;
  }
  inlet
  {
    type fixedValue;
    value uniform (0.277164 -0.114805 0);
  }
  outlet
  {
    type zeroGradient;
  }
} 	// ************************************************************************* //

