/*--------------------------------*- C++ -*----------------------------------*\
  =========                 |
  \\      /  F ield         | OpenFOAM: The Open Source CFD Toolbox
   \\    /   O peration     | Website:  https://openfoam.org
    \\  /    A nd           | Version:  6
     \\/     M anipulation  |
\*---------------------------------------------------------------------------*/
FoamFile
{
    version     2.0;
    format      ascii;
    class       volScalarField;
    location    "1900";
    object      alphat;
}
// * * * * * * * * * * * * * * * * * * * * * * * * * * * * * * * * * * * * * //

dimensions      [1 -1 -1 0 0 0 0];

internalField   nonuniform List<scalar> 
459
(
0.00132373
0.00145087
0.00147891
0.00155195
0.00162045
0.0016854
0.00175019
0.00180965
0.00184958
0.00186317
0.00184452
0.00178998
0.00169841
0.00157514
0.0014359
0.000594984
0.000717483
0.000806467
0.000804284
0.000776999
0.000740511
0.000693967
0.000647755
0.000605877
0.000568768
0.00053597
0.000506891
0.000481065
0.000457934
0.000436683
0.00041629
0.000395384
0.000383286
0.00035227
0.0018008
0.00451067
0.00435771
0.00508594
0.00580463
0.00651317
0.00711488
0.0075894
0.0080094
0.00834161
0.00854312
0.00856976
0.00835435
0.00772389
0.00597866
0.00147501
0.000854905
0.000632327
0.00132685
0.00184939
0.00223202
0.00243628
0.00242378
0.00192795
0.0016555
0.00146203
0.00131416
0.00119694
0.00110166
0.00102004
0.000944331
0.000871085
0.000805869
0.000748009
0.000900183
0.000469584
0.00219397
0.00616662
0.00543688
0.00679982
0.00749347
0.00801327
0.0084187
0.00876425
0.00913003
0.0094992
0.0098245
0.0100521
0.0101192
0.0099178
0.00914807
0.00692168
0.00150997
0.00122248
0.00178688
0.00231201
0.00279293
0.00312074
0.00303102
0.000987539
0.000870071
0.000775837
0.000699961
0.000638281
0.000587598
0.000545611
0.000510859
0.000482738
0.000519885
0.0005994
0.0010265
0.00055071
0.00256793
0.00784437
0.00549718
0.00719932
0.0077962
0.00802414
0.00819671
0.00841437
0.00873294
0.00913294
0.00955187
0.00992451
0.0101794
0.0102254
0.00999163
0.00912294
0.0062242
0.00177914
0.00221536
0.00287635
0.00352832
0.0040469
0.00435396
0.00405741
0.00111168
0.00100921
0.000935738
0.000879423
0.000831289
0.000787629
0.000745676
0.000701827
0.00065131
0.000611302
0.000632139
0.00121905
0.000610035
0.00294682
0.00997259
0.00608745
0.00699571
0.00774014
0.00781936
0.00780711
0.00797307
0.00826495
0.00868975
0.00916444
0.00960193
0.00989726
0.00998602
0.00985956
0.00947454
0.00859963
0.00712697
0.00661673
0.00645246
0.00639172
0.00633652
0.00623167
0.00594015
0.0049579
0.00448274
0.00420311
0.00398702
0.00376361
0.00344611
0.00303309
0.0025449
0.00201405
0.0014921
0.00110703
0.00117884
0.000804195
0.000748412
0.000892723
0.00100008
0.00334655
0.0122776
0.00833599
0.00714233
0.00768053
0.00781672
0.00777048
0.00787842
0.00810791
0.00849755
0.00900192
0.00948928
0.00980988
0.00987111
0.00968453
0.00934857
0.00897007
0.00860471
0.00838871
0.00819399
0.00795069
0.00766801
0.0073577
0.00699572
0.006511
0.00609405
0.00573662
0.00540383
0.00507254
0.00471464
0.00427157
0.00372916
0.00309285
0.00240456
0.00181031
0.00134637
0.00107863
0.00095725
0.00138097
0.00104971
0.00370109
0.0138388
0.0114765
0.0091963
0.00880394
0.00849386
0.00816223
0.00803101
0.00817663
0.00858986
0.00916172
0.00970463
0.0100279
0.0100257
0.00973625
0.00934531
0.00909154
0.00904663
0.00902857
0.00884848
0.00849795
0.00805065
0.00755843
0.00704415
0.00652738
0.00606666
0.00565895
0.00528906
0.0049536
0.00465788
0.00440041
0.00403992
0.0035437
0.00294629
0.00239618
0.0018946
0.00157759
0.0015005
0.00153177
0.00120134
0.00375953
0.0120627
0.010898
0.0100845
0.00929893
0.00851361
0.00802936
0.00797181
0.00832609
0.00897379
0.0097111
0.010294
0.0105282
0.0103533
0.00988682
0.00941962
0.00923628
0.00926649
0.00911679
0.00869427
0.008096
0.00741786
0.00673242
0.00609974
0.00556059
0.00512168
0.00476172
0.0044671
0.00423754
0.00407875
0.00399493
0.00394914
0.0037204
0.00334273
0.00303476
0.00291785
0.00309854
0.00362593
0.00464004
0.00180959
0.00364909
0.00430661
0.00474884
0.00486007
0.00511322
0.00567116
0.00655141
0.00769241
0.00894394
0.0100996
0.0109411
0.0112882
0.0110921
0.0104893
0.00980595
0.00939296
0.00912264
0.00879991
0.00827051
0.00754536
0.00672871
0.00592836
0.00522854
0.00466862
0.00424043
0.00391072
0.00364809
0.00343349
0.00325522
0.00310393
0.00297178
0.00285757
0.00277337
0.0027216
0.00271997
0.00275495
0.0027516
0.00264433
0.00245538
0.00167838
0.00173942
0.00438692
0.00790421
0.0101826
0.0116825
0.0125997
0.0129831
0.0129155
0.0124897
0.0118079
0.0108288
0.00982631
0.00906094
0.00851976
0.00796552
0.00728009
0.00649237
0.00569071
0.00495071
0.00432628
0.00384892
0.00350102
0.00324719
0.00305739
0.00291289
0.00280392
0.0027262
0.0026793
0.00266613
0.00268534
0.00272534
0.0027838
0.00285449
0.00291564
0.00293932
0.00292954
0.00259446
0.00138856
0.00261866
0.00802219
0.0110165
0.0117887
0.012025
0.0118542
0.0113074
0.0105255
0.00964245
0.00878035
0.00796376
0.00727344
0.00669819
0.00612268
0.0055015
0.00488126
0.00431299
0.00382798
0.00343534
0.00312833
0.00289333
0.00272177
0.00260056
0.00252118
0.00247869
0.00246875
0.00248534
0.00252376
0.00259168
0.00268366
0.00279546
0.00291977
0.00304157
0.00314485
0.00322955
0.00323382
0.00223359
0.00143413
0.00231602
0.00245721
0.00255862
0.00273843
0.00262417
0.00252157
0.00243877
0.00231989
0.00215986
0.00196807
0.00175453
0.00153768
0.00134325
0.00118705
0.00106953
0.000982884
0.000918587
0.000870534
0.000835321
0.000811271
0.00079729
0.000792494
0.000795321
0.00080419
0.000818635
0.000838474
0.000863774
0.000894889
0.000932626
0.000977962
0.00103031
0.00109024
0.0011581
0.0012343
0.00131842
0.00141526
0.00144062
0.00131292
0.00122191
0.00138307
)
;

boundaryField
{
    floor
    {
        type            compressible::alphatWallFunction;
        Prt             0.85;
        value           nonuniform List<scalar> 
29
(
0.000202303
8.35892e-05
0.000101729
0.00011467
0.000114354
0.000110405
0.000105096
9.82786e-05
9.14547e-05
8.52194e-05
7.96499e-05
7.469e-05
7.02608e-05
6.63006e-05
6.27307e-05
5.94309e-05
5.6245e-05
5.29582e-05
5.10462e-05
4.61083e-05
4.61076e-05
6.45322e-05
7.69247e-05
8.58423e-05
0.000202301
8.35882e-05
8.91631e-05
0.000173211
0.000248116
)
;
    }
    ceiling
    {
        type            compressible::alphatWallFunction;
        Prt             0.85;
        value           nonuniform List<scalar> 
43
(
0.000317767
0.00033581
0.000348704
0.000371592
0.000357224
0.000344238
0.000333713
0.000318523
0.000297935
0.000273039
0.000245003
0.000216144
0.000189879
0.000168467
0.000152145
0.000139979
0.00013087
0.000124014
0.000118961
0.000115495
0.000113475
0.000112781
0.00011319
0.000114473
0.000116558
0.000119415
0.000123046
0.000127495
0.000132866
0.000139286
0.000146655
0.000155038
0.000164468
0.00017498
0.0001865
0.000199661
0.000203091
0.000185752
0.000173282
0.000195309
0.000484801
0.000564505
0.000356072
)
;
    }
    sWall
    {
        type            compressible::alphatWallFunction;
        Prt             0.85;
        value           uniform 0.000316495;
    }
    nWall
    {
        type            compressible::alphatWallFunction;
        Prt             0.85;
        value           nonuniform List<scalar> 6(0.000142055 0.000149019 0.000170075 0.000195698 0.000201863 0.00019496);
    }
    sideWalls
    {
        type            empty;
    }
    glass1
    {
        type            compressible::alphatWallFunction;
        Prt             0.85;
        value           nonuniform List<scalar> 9(0.000182339 0.000245349 0.000296037 0.000343441 0.000390799 0.000440126 0.000483422 0.000490664 0.000477503);
    }
    glass2
    {
        type            compressible::alphatWallFunction;
        Prt             0.85;
        value           nonuniform List<scalar> 2(0.000250198 0.000233017);
    }
    sun
    {
        type            compressible::alphatWallFunction;
        Prt             0.85;
        value           nonuniform List<scalar> 
14
(
0.000187099
0.000204329
0.000208108
0.000217919
0.000227073
0.000235713
0.000244294
0.00025214
0.000257391
0.000259176
0.000256726
0.000249545
0.000237435
0.000221019
)
;
    }
    heatsource1
    {
        type            compressible::alphatWallFunction;
        Prt             0.85;
        value           nonuniform List<scalar> 3(0.000106402 0.000127211 0.000142432);
    }
    heatsource2
    {
        type            compressible::alphatWallFunction;
        Prt             0.85;
        value           nonuniform List<scalar> 4(0.000207757 0.0001218 0.000121798 0.000212459);
    }
    Table_master
    {
        type            compressible::alphatWallFunction;
        Prt             0.85;
        value           nonuniform List<scalar> 9(0.000140661 0.000123971 0.000110389 9.93092e-05 9.01954e-05 8.26255e-05 7.62934e-05 7.10064e-05 6.66952e-05);
    }
    Table_slave
    {
        type            compressible::alphatWallFunction;
        Prt             0.85;
        value           nonuniform List<scalar> 9(0.000158052 0.000143717 0.000133334 0.000125311 0.000118406 0.000112101 0.000106003 9.95857e-05 9.21313e-05);
    }
    inlet
    {
        type            fixedValue;
        value           uniform 1.94e-05;
    }
    outlet
    {
        type            zeroGradient;
    }
}


// ************************************************************************* //
