// -*- C++ -*-
// File generated by PyFoam - sorry for the ugliness

FoamFile
{
 version 2.0;
 format ascii;
 class volVectorField;
 location "1900";
 object U;
}

dimensions [ 0 1 -1 0 0 0 0 ];

internalField nonuniform List<vector> 459
(
  (0.0336682 0.0881736 0)
  (-0.171551 0.0263783 0)
  (-0.19657 0.0178226 0)
  (-0.227233 0.0118853 0)
  (-0.248856 0.00538046 0)
  (-0.260471 -0.00142926 0)
  (-0.260626 -0.00855177 0)
  (-0.248643 -0.0159487 0)
  (-0.225446 -0.0228858 0)
  (-0.193058 -0.0282664 0)
  (-0.154906 -0.0312546 0)
  (-0.114755 -0.0315615 0)
  (-0.0761637 -0.0295398 0)
  (-0.0442042 -0.0266255 0)
  (-0.0340314 -0.0246229 0)
  (-0.00253351 0.00876287 0)
  (-0.0283673 -0.0194015 0)
  (-0.00319422 -0.0292172 0)
  (0.0209776 -0.021702 0)
  (0.0379169 -0.0145933 0)
  (0.0507828 -0.00931026 0)
  (0.0585219 -0.00552704 0)
  (0.0624086 -0.0035506 0)
  (0.0641482 -0.00270444 0)
  (0.0650326 -0.00230002 0)
  (0.0655865 -0.00203931 0)
  (0.0658857 -0.00182929 0)
  (0.0658681 -0.00158215 0)
  (0.0653319 -0.00112517 0)
  (0.0637175 -7.90176e-05 0)
  (0.0598293 0.00208068 0)
  (0.0523799 0.00431185 0)
  (0.0461057 0.00607231 0)
  (-0.0154197 0.022668 0)
  (0.210251 0.180198 0)
  (-0.158795 0.0694876 0)
  (-0.15724 0.0528496 0)
  (-0.188632 0.0403225 0)
  (-0.209848 0.0262634 0)
  (-0.221553 0.0107345 0)
  (-0.222249 -0.00636098 0)
  (-0.211244 -0.0241399 0)
  (-0.190035 -0.0401673 0)
  (-0.160965 -0.0520149 0)
  (-0.1275 -0.058107 0)
  (-0.0930901 -0.0581702 0)
  (-0.0608776 -0.0528115 0)
  (-0.0342947 -0.0435871 0)
  (-0.0176361 -0.0323942 0)
  (-0.00399124 -0.0144329 0)
  (-0.00412204 0.016947 0)
  (0.073886 0.0364552 0)
  (0.0307643 -0.0198727 0)
  (0.0382218 -0.0332956 0)
  (0.0499901 -0.0287755 0)
  (0.0591156 -0.0200212 0)
  (0.0653027 -0.0119111 0)
  (0.0678383 -0.00496216 0)
  (0.0682345 -0.0011 0)
  (0.0681354 0.000526551 0)
  (0.0682134 0.00126001 0)
  (0.0683866 0.00170664 0)
  (0.0685101 0.00207781 0)
  (0.0685399 0.00254877 0)
  (0.0684242 0.00345988 0)
  (0.0676234 0.00572438 0)
  (0.0636567 0.0120386 0)
  (0.0536368 0.0172276 0)
  (0.0501581 0.0205435 0)
  (-0.0575995 0.0489419 0)
  (0.37161 0.269162 0)
  (-0.174001 0.110153 0)
  (-0.117601 0.0850565 0)
  (-0.147491 0.0629129 0)
  (-0.166002 0.0398713 0)
  (-0.176354 0.0147819 0)
  (-0.176049 -0.0127818 0)
  (-0.164214 -0.0409102 0)
  (-0.14352 -0.0653059 0)
  (-0.116904 -0.0823244 0)
  (-0.0878866 -0.0900534 0)
  (-0.0591579 -0.0887982 0)
  (-0.0327797 -0.079671 0)
  (-0.0108236 -0.0645124 0)
  (0.00559172 -0.0439409 0)
  (0.0169666 -0.018465 0)
  (0.0230231 0.0180416 0)
  (0.120641 -0.0362762 0)
  (0.0786261 -0.0436196 0)
  (0.0725004 -0.0415245 0)
  (0.0742742 -0.0341263 0)
  (0.0755834 -0.0247458 0)
  (0.0764144 -0.0166742 0)
  (0.0747433 -0.0133401 0)
  (0.0702847 -0.00937583 0)
  (0.0671794 -0.00722391 0)
  (0.065799 -0.00599504 0)
  (0.0652156 -0.00521279 0)
  (0.0649314 -0.00467042 0)
  (0.0649603 -0.00416948 0)
  (0.0657724 -0.00333929 0)
  (0.0685737 -0.00017242 0)
  (0.0662215 0.0172787 0)
  (0.0518785 0.029316 0)
  (0.0570325 0.0369349 0)
  (-0.0953803 0.0754988 0)
  (0.516518 0.340492 0)
  (-0.207052 0.146081 0)
  (-0.0764585 0.11211 0)
  (-0.103783 0.08167 0)
  (-0.11653 0.0518214 0)
  (-0.122603 0.0185811 0)
  (-0.117627 -0.0193495 0)
  (-0.102686 -0.0577823 0)
  (-0.0821607 -0.0892214 0)
  (-0.0590992 -0.109648 0)
  (-0.0365532 -0.117572 0)
  (-0.0156622 -0.114562 0)
  (0.00315742 -0.101955 0)
  (0.0188467 -0.0825385 0)
  (0.0324058 -0.0586048 0)
  (0.0471748 -0.0314637 0)
  (0.0696205 -0.00159737 0)
  (0.101619 0.0134418 0)
  (0.107538 -0.0284719 0)
  (0.0920215 -0.0377816 0)
  (0.0826773 -0.0351081 0)
  (0.0780076 -0.0295257 0)
  (0.0747342 -0.0222615 0)
  (0.0729489 -0.0134428 0)
  (0.0746168 -0.00787789 0)
  (0.0791674 -0.00607351 0)
  (0.0829097 -0.00504721 0)
  (0.0853395 -0.0042533 0)
  (0.0867024 -0.00327434 0)
  (0.0863741 -0.00183835 0)
  (0.0833215 0.000260351 0)
  (0.076293 0.00331534 0)
  (0.0623051 0.00789595 0)
  (0.0506197 0.0286023 0)
  (0.0380532 0.0454271 0)
  (0.0608266 0.0578786 0)
  (-0.141276 0.0978934 0)
  (0.640693 0.395628 0)
  (-0.247628 0.175344 0)
  (-0.0367494 0.127087 0)
  (-0.0580885 0.091754 0)
  (-0.0622617 0.0578183 0)
  (-0.0600354 0.0180938 0)
  (-0.0435458 -0.029882 0)
  (-0.0243669 -0.0758744 0)
  (-0.00580916 -0.11016 0)
  (0.0107637 -0.130291 0)
  (0.0234261 -0.13554 0)
  (0.0334383 -0.129654 0)
  (0.0411548 -0.115021 0)
  (0.0474533 -0.094297 0)
  (0.0535301 -0.070166 0)
  (0.0612582 -0.045759 0)
  (0.0733113 -0.0269776 0)
  (0.0839144 -0.025287 0)
  (0.0848717 -0.0334242 0)
  (0.0777909 -0.0334081 0)
  (0.0691123 -0.0292203 0)
  (0.0623362 -0.0241648 0)
  (0.0574312 -0.0185868 0)
  (0.0546864 -0.012504 0)
  (0.0546195 -0.00682476 0)
  (0.0568832 -0.00416904 0)
  (0.0594352 -0.0031745 0)
  (0.0618776 -0.00230785 0)
  (0.0640936 -0.000552694 0)
  (0.0656575 0.00259952 0)
  (0.0653485 0.00722193 0)
  (0.0625954 0.0134662 0)
  (0.0566679 0.0219889 0)
  (0.0495594 0.0378148 0)
  (0.0381218 0.0568172 0)
  (0.0682203 0.0777822 0)
  (-0.0388944 0.109739 0)
  (0.0477609 0.0246917 0)
  (-0.0689561 -0.0373365 0)
  (-0.286238 -0.0609794 0)
  (0.729962 0.441367 0)
  (-0.286855 0.194622 0)
  (-0.00696268 0.121349 0)
  (-0.00984642 0.0896935 0)
  (-0.00104427 0.0546237 0)
  (0.0186353 0.00600585 0)
  (0.0484439 -0.0495055 0)
  (0.0681372 -0.0937153 0)
  (0.0804526 -0.123476 0)
  (0.0860654 -0.138764 0)
  (0.0863088 -0.140882 0)
  (0.0829863 -0.132418 0)
  (0.0775862 -0.116182 0)
  (0.0716837 -0.0950846 0)
  (0.0667185 -0.0718888 0)
  (0.0639423 -0.0496141 0)
  (0.06408 -0.0323034 0)
  (0.0641095 -0.0248999 0)
  (0.0601523 -0.0243517 0)
  (0.0523715 -0.0237365 0)
  (0.0437971 -0.0212308 0)
  (0.0367986 -0.017924 0)
  (0.0318618 -0.0143348 0)
  (0.0292401 -0.0106118 0)
  (0.0290214 -0.0075352 0)
  (0.0307567 -0.00646348 0)
  (0.0334129 -0.00637014 0)
  (0.0365947 -0.00594607 0)
  (0.0401148 -0.00415401 0)
  (0.0438027 -0.000127217 0)
  (0.046934 0.00628364 0)
  (0.0485755 0.014719 0)
  (0.0489753 0.0253841 0)
  (0.0496971 0.0400876 0)
  (0.0477185 0.0585679 0)
  (0.0764248 0.0831526 0)
  (0.047841 0.102223 0)
  (0.097748 0.0680303 0)
  (0.122308 0.0446633 0)
  (-0.137955 -0.00947031 0)
  (0.7866 0.483198 0)
  (-0.304672 0.179118 0)
  (0.0239202 0.0651937 0)
  (0.0575128 0.055311 0)
  (0.0835626 0.0298973 0)
  (0.127255 -0.0238445 0)
  (0.15589 -0.0722907 0)
  (0.169758 -0.106843 0)
  (0.170841 -0.127323 0)
  (0.161794 -0.135089 0)
  (0.14575 -0.131954 0)
  (0.125816 -0.120353 0)
  (0.104682 -0.103061 0)
  (0.0845922 -0.0827393 0)
  (0.0671495 -0.0616022 0)
  (0.053335 -0.0420637 0)
  (0.043389 -0.0270528 0)
  (0.0357216 -0.0189604 0)
  (0.0280775 -0.0163082 0)
  (0.0199033 -0.0153224 0)
  (0.0123012 -0.0139697 0)
  (0.00632287 -0.0123524 0)
  (0.00227073 -0.0107467 0)
  (0.000275438 -0.00928424 0)
  (0.000292024 -0.00844511 0)
  (0.00184457 -0.00874241 0)
  (0.00426458 -0.00948962 0)
  (0.00731243 -0.00975117 0)
  (0.0110446 -0.00862192 0)
  (0.0156248 -0.00505156 0)
  (0.0221847 0.00194932 0)
  (0.0284944 0.0112081 0)
  (0.0346268 0.0219492 0)
  (0.0425472 0.0348619 0)
  (0.0506051 0.0497053 0)
  (0.0768403 0.069564 0)
  (0.0897981 0.0770161 0)
  (0.126658 0.0503951 0)
  (0.168866 0.0417113 0)
  (-0.0316441 0.0954043 0)
  (0.894564 0.482757 0)
  (-0.0566281 0.157596 0)
  (0.119355 -0.0234037 0)
  (0.207159 -0.059201 0)
  (0.2527 -0.0723487 0)
  (0.277883 -0.0890789 0)
  (0.286946 -0.104611 0)
  (0.279284 -0.114501 0)
  (0.257068 -0.117585 0)
  (0.224554 -0.114062 0)
  (0.186451 -0.10476 0)
  (0.146876 -0.090925 0)
  (0.109137 -0.0743975 0)
  (0.0755674 -0.0569797 0)
  (0.0474121 -0.039905 0)
  (0.0254484 -0.024894 0)
  (0.00980964 -0.0142708 0)
  (-0.0010552 -0.00900929 0)
  (-0.00910276 -0.00773161 0)
  (-0.0158562 -0.00777687 0)
  (-0.021475 -0.00785836 0)
  (-0.0257629 -0.00788901 0)
  (-0.0287089 -0.00800244 0)
  (-0.0303427 -0.00832497 0)
  (-0.0308172 -0.00906696 0)
  (-0.0305222 -0.01031 0)
  (-0.0298574 -0.0117045 0)
  (-0.0289267 -0.0127675 0)
  (-0.0275461 -0.0129919 0)
  (-0.025268 -0.0117759 0)
  (-0.0210192 -0.00835551 0)
  (-0.0114174 -0.00205368 0)
  (-0.00173996 0.00607872 0)
  (0.0101158 0.0144355 0)
  (0.0225373 0.0213862 0)
  (0.0450359 0.0296319 0)
  (0.0650126 0.0230582 0)
  (0.0838993 -0.00304784 0)
  (0.144313 0.051458 0)
  (-0.475616 0.218426 0)
  (1.04685 0.427144 0)
  (0.495945 0.278859 0)
  (0.514991 0.173202 0)
  (0.550022 0.0954001 0)
  (0.530164 0.0417071 0)
  (0.482567 -0.00101827 0)
  (0.42754 -0.0323914 0)
  (0.367338 -0.0515764 0)
  (0.302769 -0.0598137 0)
  (0.237214 -0.0595917 0)
  (0.174764 -0.0536047 0)
  (0.118353 -0.0438704 0)
  (0.0702531 -0.0325759 0)
  (0.0309867 -0.0214258 0)
  (-0.000137865 -0.0112967 0)
  (-0.0214422 -0.00439261 0)
  (-0.0335523 -0.0014274 0)
  (-0.0409588 -0.000837734 0)
  (-0.0461172 -0.00152005 0)
  (-0.0505199 -0.0025757 0)
  (-0.0543358 -0.00363633 0)
  (-0.0575628 -0.00468694 0)
  (-0.0602574 -0.0057905 0)
  (-0.062534 -0.00698739 0)
  (-0.0646217 -0.00831273 0)
  (-0.0668723 -0.0096964 0)
  (-0.0696449 -0.0108693 0)
  (-0.0732334 -0.0114407 0)
  (-0.0779381 -0.0109197 0)
  (-0.0841826 -0.00867391 0)
  (-0.0925484 -0.00393327 0)
  (-0.103053 0.00389066 0)
  (-0.114004 0.0144654 0)
  (-0.129793 0.0278383 0)
  (-0.154718 0.0437754 0)
  (-0.190913 0.0607405 0)
  (-0.242842 0.0742979 0)
  (-0.30459 0.0822396 0)
  (-0.381936 0.0854632 0)
  (-0.655936 0.0794345 0)
  (-0.181734 -0.0198976 0)
  (0.100726 -0.0343967 0)
  (0.17741 -0.0543832 0)
  (0.164648 -0.0472035 0)
  (0.14567 -0.0342696 0)
  (0.121798 -0.0224518 0)
  (0.089955 -0.0123075 0)
  (0.0542207 -0.004369 0)
  (0.0193871 0.00110524 0)
  (-0.0134086 0.0047336 0)
  (-0.0371575 0.00604715 0)
  (-0.0543982 0.00613063 0)
  (-0.0654489 0.0051735 0)
  (-0.0712409 0.0031239 0)
  (-0.0745391 0.000675843 0)
  (-0.0768044 -0.0018364 0)
  (-0.0788638 -0.00438234 0)
  (-0.0810255 -0.00676684 0)
  (-0.0834723 -0.00880351 0)
  (-0.0861513 -0.0102907 0)
  (-0.0889217 -0.0113816 0)
  (-0.0918705 -0.0121325 0)
  (-0.0951792 -0.0125734 0)
  (-0.0990316 -0.0126507 0)
  (-0.103537 -0.0121636 0)
  (-0.108668 -0.0107652 0)
  (-0.114208 -0.00799391 0)
  (-0.119731 -0.00332092 0)
  (-0.124614 0.00364251 0)
  (-0.128346 0.0131259 0)
  (-0.131334 0.0260628 0)
  (-0.133835 0.0429576 0)
  (-0.136682 0.0631691 0)
  (-0.140052 0.0835252 0)
  (-0.140088 0.0957559 0)
  (-0.117747 0.085421 0)
  (-0.0401369 0.0283055 0)
  (-0.209529 -0.187192 0)
  (0.0342607 0.198736 0)
  (0.014026 0.0645347 0)
  (-0.0318999 0.0122952 0)
  (-0.0551013 0.0113521 0)
  (-0.073067 0.0173244 0)
  (-0.0863256 0.0218272 0)
  (-0.0951932 0.0255374 0)
  (-0.101931 0.028646 0)
  (-0.106756 0.0305482 0)
  (-0.109927 0.0309805 0)
  (-0.111255 0.0304277 0)
  (-0.111238 0.0300793 0)
  (-0.110118 0.030159 0)
  (-0.108455 0.0307416 0)
  (-0.106858 0.0320399 0)
  (-0.105565 0.0339465 0)
  (-0.104704 0.0360532 0)
  (-0.104306 0.0378695 0)
  (-0.104357 0.0389119 0)
  (-0.104761 0.0387097 0)
  (-0.105548 0.0376866 0)
  (-0.106717 0.0362389 0)
  (-0.108265 0.0344596 0)
  (-0.110172 0.0324293 0)
  (-0.11237 0.0302547 0)
  (-0.114723 0.0280489 0)
  (-0.116988 0.0258889 0)
  (-0.118687 0.0239992 0)
  (-0.119011 0.0236511 0)
  (-0.116777 0.0260782 0)
  (-0.11053 0.0323207 0)
  (-0.0990768 0.043303 0)
  (-0.082565 0.0588483 0)
  (-0.0625246 0.0749015 0)
  (-0.0421278 0.0819712 0)
  (0.0405266 0.0318414 0)
  (0.150363 -0.0595588 0)
  (-0.0518517 -0.0627578 0)
  (-0.092585 -0.347206 0)
  (-0.447391 -0.138603 0)
  (-0.333914 0.0446391 0)
  (-0.29129 -0.0449202 0)
  (-0.250285 -0.051795 0)
  (-0.238827 -0.0445085 0)
  (-0.230772 -0.0375045 0)
  (-0.221469 -0.0330716 0)
  (-0.209848 -0.0308225 0)
  (-0.196168 -0.03087 0)
  (-0.181397 -0.0337552 0)
  (-0.166937 -0.0394715 0)
  (-0.154018 -0.0472564 0)
  (-0.143262 -0.0558516 0)
  (-0.134761 -0.0647205 0)
  (-0.128355 -0.0736465 0)
  (-0.123668 -0.0823046 0)
  (-0.120259 -0.0903236 0)
  (-0.1178 -0.0972924 0)
  (-0.116078 -0.102753 0)
  (-0.114996 -0.106325 0)
  (-0.11456 -0.107789 0)
  (-0.114748 -0.107435 0)
  (-0.11543 -0.10575 0)
  (-0.116449 -0.10288 0)
  (-0.11764 -0.0989069 0)
  (-0.118784 -0.0938325 0)
  (-0.119574 -0.0875533 0)
  (-0.119607 -0.0798252 0)
  (-0.11836 -0.0705011 0)
  (-0.114875 -0.0602041 0)
  (-0.107313 -0.0488695 0)
  (-0.093073 -0.0361904 0)
  (-0.0700197 -0.021474 0)
  (-0.038685 -0.00423809 0)
  (0.00659158 0.0150371 0)
  (0.047498 0.00647052 0)
  (0.108061 -0.0482681 0)
  (0.119315 -0.0895978 0)
  (-0.517281 0.010064 0)
)
;

boundaryField
{
  floor
  {
    type noSlip;
  }
  ceiling
  {
    type noSlip;
  }
  sWall
  {
    type noSlip;
  }
  nWall
  {
    type noSlip;
  }
  sideWalls
  {
    type empty;
  }
  glass1
  {
    type noSlip;
  }
  glass2
  {
    type noSlip;
  }
  sun
  {
    type noSlip;
  }
  heatsource1
  {
    type noSlip;
  }
  heatsource2
  {
    type noSlip;
  }
  Table_master
  {
    type noSlip;
  }
  Table_slave
  {
    type noSlip;
  }
  inlet
  {
    type fixedValue;
    value uniform (0.277164 -0.114805 0);
  }
  outlet
  {
    type zeroGradient;
  }
} 	// ************************************************************************* //

