/*--------------------------------*- C++ -*----------------------------------*\
  =========                 |
  \\      /  F ield         | OpenFOAM: The Open Source CFD Toolbox
   \\    /   O peration     | Website:  https://openfoam.org
    \\  /    A nd           | Version:  6
     \\/     M anipulation  |
\*---------------------------------------------------------------------------*/
FoamFile
{
    version     2.0;
    format      ascii;
    class       volScalarField;
    location    "600";
    object      epsilon;
}
// * * * * * * * * * * * * * * * * * * * * * * * * * * * * * * * * * * * * * //

dimensions      [0 2 -3 0 0 0 0];

internalField   nonuniform List<scalar> 
459
(
0.000163198
0.000188843
0.000184361
0.000203282
0.000220318
0.000235398
0.000248923
0.000261425
0.000273576
0.00028562
0.000294336
0.000298509
0.000298075
0.000295345
0.000292145
0.000103822
8.48946e-05
7.13004e-05
6.20045e-05
5.49838e-05
4.89931e-05
4.33952e-05
3.85288e-05
3.433e-05
3.06654e-05
2.74447e-05
2.45945e-05
2.20496e-05
1.97449e-05
1.76074e-05
1.55532e-05
1.34593e-05
1.19859e-05
9.25647e-06
0.000537897
0.00111539
0.000175833
0.000155691
0.000152805
0.000152469
0.00015433
0.000159587
0.000169545
0.00018462
0.000200465
0.000214034
0.000222808
0.00022934
0.000250524
0.000319778
0.000250848
0.000174726
9.75575e-05
6.60799e-05
5.04624e-05
4.10158e-05
3.49346e-05
3.19988e-05
2.836e-05
2.49773e-05
2.1875e-05
1.90804e-05
1.65978e-05
1.44065e-05
1.24841e-05
1.09045e-05
1.01196e-05
1.01362e-05
3.1259e-05
1.99316e-05
0.00117915
0.00350615
0.00026772
0.000154621
0.000148291
0.000151988
0.000159789
0.000172195
0.000189503
0.000210958
0.00023216
0.000247126
0.000251506
0.000248128
0.00025061
0.000279708
0.000420423
0.000252203
0.000100658
6.29766e-05
4.74749e-05
3.92161e-05
3.64617e-05
7.88351e-05
5.61917e-05
4.2032e-05
3.27754e-05
2.645e-05
2.1957e-05
1.86799e-05
1.62855e-05
1.46606e-05
1.18381e-05
1.10902e-05
6.41603e-05
3.21915e-05
0.00224385
0.00826577
0.000553268
0.000166486
0.00015025
0.000158555
0.000171483
0.000189336
0.000213463
0.000244283
0.000274481
0.000292217
0.000291465
0.00027526
0.000253784
0.00024462
0.000283523
0.000397703
0.000181261
8.72561e-05
5.63802e-05
4.39766e-05
3.86906e-05
3.98127e-05
0.000103569
8.95425e-05
8.40076e-05
8.09762e-05
7.72791e-05
7.11656e-05
6.4043e-05
5.66225e-05
4.80205e-05
2.90793e-05
1.99065e-05
0.00012683
4.50076e-05
0.00388145
0.0157141
0.00134349
0.000207619
0.000151688
0.000159972
0.000177253
0.00020315
0.000241705
0.000295359
0.000345218
0.000369345
0.000363169
0.000332446
0.0002862
0.00024222
0.000227595
0.00023802
0.000130655
8.00212e-05
5.51956e-05
4.55504e-05
4.29571e-05
4.43708e-05
5.09679e-05
5.51146e-05
5.82924e-05
5.9916e-05
5.89893e-05
5.49363e-05
4.92914e-05
4.43805e-05
4.02944e-05
3.33444e-05
2.62856e-05
8.92189e-05
5.37051e-05
0.000107115
0.000178672
0.000245425
0.00627934
0.0237821
0.00356135
0.000430931
0.000195274
0.000175306
0.000185731
0.000214288
0.000272543
0.000378121
0.000454936
0.000480679
0.000463638
0.000415954
0.000344707
0.000267344
0.00021897
0.000210621
0.00013728
8.49525e-05
6.08213e-05
5.30671e-05
5.26931e-05
5.61609e-05
6.24959e-05
6.9852e-05
7.68005e-05
8.17957e-05
8.31038e-05
7.87443e-05
6.74775e-05
5.57529e-05
4.58182e-05
3.76408e-05
3.31592e-05
5.98801e-05
5.78784e-05
7.65005e-05
0.000335482
0.000280044
0.0095489
0.0284184
0.00899092
0.00200398
0.000786185
0.000430329
0.00033078
0.000321305
0.0003991
0.000565815
0.000638301
0.000637793
0.000592432
0.000519506
0.000421316
0.000308982
0.000231526
0.000232016
0.000159669
9.81177e-05
7.42758e-05
6.77353e-05
6.85771e-05
7.34997e-05
8.14786e-05
9.15554e-05
0.000102703
0.000113045
0.000121005
0.000123368
0.000114991
9.45588e-05
7.66065e-05
6.28309e-05
5.811e-05
7.21189e-05
9.52929e-05
0.000180222
0.000460875
0.000410653
0.0105461
0.0344471
0.0177089
0.0104597
0.00561556
0.00291848
0.0017007
0.00120139
0.00107515
0.00102931
0.000958354
0.000862078
0.000752811
0.000636633
0.000503914
0.000354537
0.000249076
0.000264785
0.000189891
0.000121668
9.77814e-05
9.14066e-05
9.21104e-05
9.69798e-05
0.000105253
0.000116535
0.000130645
0.0001476
0.000167521
0.000189687
0.000211182
0.000218728
0.000216289
0.000230734
0.000273912
0.000439879
0.000913415
0.00208923
0.00650382
0.00158391
0.00999462
0.0178839
0.0151608
0.011458
0.00832622
0.00578923
0.00401529
0.00290139
0.00220336
0.00171663
0.0013714
0.00111591
0.000915825
0.000746141
0.00057339
0.000382788
0.000255173
0.000306128
0.000235797
0.000163621
0.00013899
0.000130983
0.000128959
0.000130515
0.000135369
0.000143759
0.000156433
0.000174911
0.000201599
0.000239762
0.000293575
0.000368149
0.000469709
0.000629163
0.000872991
0.00120809
0.00158637
0.00189405
0.00209639
0.00121636
0.0070603
0.0102539
0.00755503
0.00561232
0.00418397
0.00316045
0.00243568
0.00190666
0.00151111
0.00120983
0.000972626
0.000774919
0.000577627
0.000366958
0.000239127
0.00036806
0.00032707
0.000246777
0.000221056
0.000211577
0.000205357
0.000200622
0.000197778
0.000197412
0.000200449
0.000208466
0.000223987
0.000250926
0.00029526
0.000364189
0.000465037
0.000607953
0.00079675
0.00100713
0.00117043
0.00119468
0.00100396
0.000654916
0.00535165
0.00929333
0.00692233
0.00514575
0.00390085
0.00297942
0.00226879
0.00172838
0.00131879
0.0010054
0.000765573
0.000582348
0.000443449
0.000313528
0.000209306
0.000325754
0.000365071
0.00034593
0.000330106
0.000319893
0.000308214
0.00029475
0.000281383
0.000270582
0.000265007
0.000267197
0.000279527
0.000304551
0.000345866
0.000409209
0.000501256
0.00062815
0.000790143
0.000978491
0.00112767
0.00124447
0.000876079
0.000680411
0.00341325
0.00403773
0.00462001
0.00551628
0.0045286
0.00367485
0.00285086
0.00224831
0.00175815
0.00136541
0.00107588
0.000860014
0.000687661
0.000545475
0.000425466
0.000308683
0.000199374
0.000231099
0.000227518
0.000215933
0.000211297
0.000209394
0.000208293
0.000208673
0.000211557
0.000217862
0.000228423
0.00024413
0.000266242
0.000296996
0.000338716
0.000392077
0.000460127
0.000546064
0.000653493
0.000820607
0.000879062
0.0008215
0.000670024
0.000527835
)
;

boundaryField
{
    floor
    {
        Cmu             0.09;
        kappa           0.41;
        E               9.8;
        type            epsilonWallFunction;
        value           nonuniform List<scalar> 
29
(
0.000292145
0.000103822
8.48946e-05
7.13004e-05
6.20045e-05
5.49838e-05
4.89931e-05
4.33952e-05
3.85288e-05
3.433e-05
3.06654e-05
2.74447e-05
2.45945e-05
2.20496e-05
1.97449e-05
1.76074e-05
1.55532e-05
1.34593e-05
1.19859e-05
9.25647e-06
9.25647e-06
1.99316e-05
3.21915e-05
4.50076e-05
0.000292145
0.000103822
0.000174726
0.000252203
0.000397703
)
;
    }
    ceiling
    {
        Cmu             0.09;
        kappa           0.41;
        E               9.8;
        type            epsilonWallFunction;
        value           nonuniform List<scalar> 
43
(
0.00341325
0.00403773
0.00462001
0.00551628
0.0045286
0.00367485
0.00285086
0.00224831
0.00175815
0.00136541
0.00107588
0.000860014
0.000687661
0.000545475
0.000425466
0.000308683
0.000199374
0.000231099
0.000227518
0.000215933
0.000211297
0.000209394
0.000208293
0.000208673
0.000211557
0.000217862
0.000228423
0.00024413
0.000266242
0.000296996
0.000338716
0.000392077
0.000460127
0.000546064
0.000653493
0.000820607
0.000879062
0.0008215
0.000670024
0.000527835
0.00999462
0.0178839
0.00535165
)
;
    }
    sWall
    {
        Cmu             0.09;
        kappa           0.41;
        E               9.8;
        type            epsilonWallFunction;
        value           uniform 0.00341325;
    }
    nWall
    {
        Cmu             0.09;
        kappa           0.41;
        E               9.8;
        type            epsilonWallFunction;
        value           nonuniform List<scalar> 6(0.000245425 0.000280044 0.000410653 0.000654916 0.000680411 0.000527835);
    }
    sideWalls
    {
        type            empty;
    }
    glass1
    {
        Cmu             0.09;
        kappa           0.41;
        E               9.8;
        type            epsilonWallFunction;
        value           nonuniform List<scalar> 9(0.000163198 0.000537897 0.00117915 0.00224385 0.00388145 0.00627934 0.0095489 0.0105461 0.00999462);
    }
    glass2
    {
        Cmu             0.09;
        kappa           0.41;
        E               9.8;
        type            epsilonWallFunction;
        value           nonuniform List<scalar> 2(0.00158391 0.00121636);
    }
    sun
    {
        Cmu             0.09;
        kappa           0.41;
        E               9.8;
        type            epsilonWallFunction;
        value           nonuniform List<scalar> 
14
(
0.000163198
0.000188843
0.000184361
0.000203282
0.000220318
0.000235398
0.000248923
0.000261425
0.000273576
0.00028562
0.000294336
0.000298509
0.000298075
0.000295345
)
;
    }
    heatsource1
    {
        Cmu             0.09;
        kappa           0.41;
        E               9.8;
        type            epsilonWallFunction;
        value           nonuniform List<scalar> 3(0.000107115 0.000178672 0.000245425);
    }
    heatsource2
    {
        Cmu             0.09;
        kappa           0.41;
        E               9.8;
        type            epsilonWallFunction;
        value           nonuniform List<scalar> 4(0.000319778 0.000250848 0.000250848 0.000420423);
    }
    Table_master
    {
        Cmu             0.09;
        kappa           0.41;
        E               9.8;
        type            epsilonWallFunction;
        value           nonuniform List<scalar> 9(7.88351e-05 5.61917e-05 4.2032e-05 3.27754e-05 2.645e-05 2.1957e-05 1.86799e-05 1.62855e-05 1.46606e-05);
    }
    Table_slave
    {
        Cmu             0.09;
        kappa           0.41;
        E               9.8;
        type            epsilonWallFunction;
        value           nonuniform List<scalar> 9(0.000103569 8.95425e-05 8.40076e-05 8.09762e-05 7.72791e-05 7.11656e-05 6.4043e-05 5.66225e-05 4.80205e-05);
    }
    inlet
    {
        type            turbulentMixingLengthDissipationRateInlet;
        mixingLength    0.01;
        phi             phi;
        k               k;
        value           uniform 0.000101881;
    }
    outlet
    {
        type            zeroGradient;
    }
}


// ************************************************************************* //
