/*--------------------------------*- C++ -*----------------------------------*\
  =========                 |
  \\      /  F ield         | OpenFOAM: The Open Source CFD Toolbox
   \\    /   O peration     | Website:  https://openfoam.org
    \\  /    A nd           | Version:  6
     \\/     M anipulation  |
\*---------------------------------------------------------------------------*/
FoamFile
{
    version     2.0;
    format      ascii;
    class       surfaceScalarField;
    location    "600";
    object      phi;
}
// * * * * * * * * * * * * * * * * * * * * * * * * * * * * * * * * * * * * * //

dimensions      [1 0 -1 0 0 0 0];

internalField   nonuniform List<scalar> 
852
(
-0.00285572
0.0029222
-0.00352356
0.000667875
-0.00420087
0.000677334
-0.00481929
0.000618448
-0.0053435
0.000524241
-0.0057573
0.000413834
-0.00604426
0.000286987
-0.00618364
0.000139411
-0.00615001
-3.3601e-05
-0.00591144
-0.000238538
-0.00544428
-0.00046713
-0.00473895
-0.000705308
-0.003764
-0.000974915
-0.00233902
-0.00142495
-0.00233628
0.000817448
-0.000813981
0.00138328
-0.000565799
0.00169529
-0.000311971
0.0018828
-0.000187482
0.00200521
-0.000122376
0.0020719
-6.66642e-05
0.00208617
-1.42342e-05
0.00207369
1.25128e-05
0.00205194
2.17739e-05
0.00202642
2.55535e-05
0.00199793
2.85168e-05
0.00196535
3.26148e-05
0.00192432
4.10537e-05
0.0018636
6.07576e-05
0.00175722
0.000106401
0.0015627
0.000194554
0.00126562
0.00029711
0.000914173
0.000351483
0.000919994
-0.00205665
0.00515626
-0.00288408
0.00149533
-0.00365775
0.00145104
-0.00429403
0.00125476
-0.00482143
0.00105167
-0.00524064
0.00083307
-0.00554006
0.000586441
-0.00570098
0.000300354
-0.00570107
-3.34745e-05
-0.00552419
-0.000415391
-0.00516128
-0.00083001
-0.00461366
-0.0012529
-0.00389615
-0.0016924
-0.0031623
-0.00215877
-0.00312157
-0.00237698
-0.00129827
-0.00182333
-0.00129828
0.000793992
-0.0015988
0.00113043
-0.000902205
0.00133804
-0.00051954
0.00149458
-0.000343984
0.00160606
-0.000233822
0.00167499
-0.00013556
0.00168721
-2.64171e-05
0.00169121
8.54052e-06
0.00169442
1.86009e-05
0.00169719
2.2818e-05
0.00169942
2.63215e-05
0.00170096
3.11018e-05
0.00170086
4.11849e-05
0.00169489
6.67676e-05
0.00165148
0.000149845
0.00145936
0.000386701
0.0011291
0.000627406
0.000735729
0.000744891
0.00167071
-0.00148541
0.00690958
-0.00230768
0.00231763
-0.00302426
0.00216764
-0.00358409
0.00181462
-0.00405518
0.0015228
-0.00443971
0.00121762
-0.00472437
0.000871141
-0.00488845
0.000464459
-0.00490807
-1.38221e-05
-0.00476184
-0.000561586
-0.00444648
-0.00114535
-0.00398128
-0.00171807
-0.00342215
-0.0022515
-0.00288347
-0.00269743
-0.00235758
-0.00290285
-0.00135187
-0.00282901
-0.00265012
0.000396841
-0.00198167
0.000711609
-0.00121694
0.000928988
-0.00073688
0.00109285
-0.000507804
0.00121984
-0.000360775
0.00131339
-0.000229075
0.00128717
0.0012959
0.00131469
0.0013377
0.00136421
0.0013955
0.00143688
0.00150383
0.00165387
0.00136665
0.000673959
0.00101517
0.000978926
0.000597232
0.00116287
0.00229054
-0.00108746
0.00833867
-0.00185025
0.00308045
-0.00234994
0.00266737
-0.0027608
0.00222551
-0.00313051
0.00189254
-0.00345018
0.00153732
-0.00370245
0.00112344
-0.00386303
0.00062507
-0.00389958
2.27645e-05
-0.00377987
-0.000681273
-0.00351059
-0.0014146
-0.0031361
-0.00209253
-0.00272103
-0.00266654
-0.00231454
-0.00310389
-0.00185561
-0.00336175
-0.00127582
-0.00340877
-0.00101672
-0.00290918
0.000695562
-0.00169734
0.000400771
-0.00168684
0.000492557
-0.00130868
0.000646482
-0.000890765
0.000784169
-0.000645451
0.00091381
-0.000490375
0.00104254
-0.000357768
0.00128823
-0.000245804
0.00151269
-0.00022457
0.00172186
-0.000209285
0.00190241
-0.000180666
0.00202922
-0.00012693
0.002069
-3.98978e-05
0.00199096
7.79286e-05
0.00176638
0.000224461
0.0013439
0.000422363
0.00117847
0.000839425
0.00082806
0.00132937
0.000294487
0.00169648
0.00261442
-0.000791981
0.00953271
-0.00147542
0.00376392
-0.00163975
0.00283172
-0.00186391
0.0024497
-0.002103
0.00213167
-0.0023256
0.00175995
-0.00251137
0.00130924
-0.00263869
0.00075242
-0.00267074
5.48507e-05
-0.00255748
-0.000794505
-0.00232672
-0.00164532
-0.0020439
-0.00237533
-0.00176438
-0.00294603
-0.00150718
-0.00336107
-0.00123321
-0.0036357
-0.000894737
-0.00374723
-0.000467691
-0.00333619
0.000189158
-0.00235415
0.000283772
-0.00178141
0.000295701
-0.00132057
0.00037302
-0.000968043
0.000478417
-0.000750806
0.000601237
-0.000613153
0.000753808
-0.000510297
0.000954522
-0.000446476
0.00114954
-0.000419544
0.00133687
-0.000396575
0.00150792
-0.000351678
0.00164463
-0.000263604
0.00171871
-0.000113933
0.00170061
9.60658e-05
0.00158086
0.00034425
0.00137193
0.000631329
0.00117694
0.00103445
0.000954899
0.00155145
0.000452243
0.00219918
0.000223408
0.0028433
-0.00128351
0.00150677
-0.00172969
0.000446031
-0.00167155
-0.000697041
0.0106818
-0.00126114
0.00432805
-0.000932174
0.00250278
-0.000895795
0.00241335
-0.00100497
0.00224087
-0.00112413
0.00187914
-0.00121195
0.00139709
-0.00126397
0.000804469
-0.00123776
2.86724e-05
-0.00109638
-0.000935854
-0.0009123
-0.00182937
-0.000743496
-0.00254411
-0.000621295
-0.00306821
-0.000547661
-0.00343469
-0.00048717
-0.00369618
-0.000356862
-0.00387752
-0.000146137
-0.00354688
8.10785e-05
-0.00258132
9.80086e-05
-0.0017983
6.99535e-05
-0.00129247
9.05203e-05
-0.000988565
0.000150419
-0.000810661
0.000239076
-0.000701766
0.000358957
-0.000630134
0.000502714
-0.00059019
0.000654882
-0.000571669
0.000811201
-0.000552852
0.000968647
-0.000509084
0.00111934
-0.000414253
0.00124622
-0.000240783
0.00131444
2.78869e-05
0.00131461
0.000344118
0.00127181
0.000674168
0.00124915
0.00105714
0.00131205
0.00148858
0.00145438
0.00205689
0.00197464
0.00232309
0.0022473
0.00123416
0.00186919
0.000824194
0.000267256
-0.000938112
0.0121148
-0.000967314
0.00435728
6.0947e-06
0.0015294
0.000326739
0.00209273
0.000285108
0.00228253
0.000220169
0.00194411
0.000233454
0.00138384
0.000316355
0.000721599
0.000467609
-0.000122549
0.000626766
-0.00109498
0.00071603
-0.00191861
0.000714503
-0.00254256
0.000628394
-0.00298209
0.000478665
-0.00328495
0.000306397
-0.00352391
0.000198689
-0.0037698
0.000155779
-0.00350393
9.4254e-05
-0.00251975
-5.00845e-05
-0.00165391
-0.000158163
-0.00118435
-0.000206042
-0.00094064
-0.000212177
-0.00080448
-0.000188872
-0.000725025
-0.000139372
-0.000679589
-6.97119e-05
-0.000659805
1.44837e-05
-0.00065582
0.000111568
-0.000649894
0.00022393
-0.000621405
0.000356655
-0.000546939
0.000512192
-0.000396281
0.000676388
-0.000136273
0.000826154
0.000194388
0.000962077
0.000538281
0.00113922
0.00088003
0.00143437
0.00119347
0.00192819
0.0015631
0.00272956
0.00152176
0.0033666
0.000597171
0.00349718
0.000693661
0.00383964
0.00243505
0.0102298
0.00294045
0.0038519
0.00292454
0.00154534
0.0027692
0.0022481
0.00248993
0.00256183
0.00232226
0.00211181
0.00230575
0.00140038
0.00243206
0.000595317
0.00262095
-0.000311404
0.00266702
-0.00114103
0.00254013
-0.00179169
0.00226522
-0.00226764
0.00188768
-0.00260453
0.00145572
-0.00285298
0.00102809
-0.00309627
0.00070191
-0.0034436
0.000434527
-0.00323652
0.000106015
-0.00219119
-0.000212512
-0.00133533
-0.000412676
-0.000984136
-0.000535168
-0.0008181
-0.000615561
-0.000724039
-0.00067083
-0.000669709
-0.000708194
-0.000642178
-0.000733101
-0.000634853
-0.000749437
-0.000639439
-0.000756465
-0.000642823
-0.000748537
-0.000629292
-0.000713044
-0.000582393
-0.00062378
-0.000485507
-0.00044016
-0.000319857
-0.000193448
-5.22894e-05
7.29393e-05
0.00027193
0.000380851
0.000572154
0.000747595
0.000826768
0.0012485
0.00106224
0.00177383
0.000996464
0.00184901
0.000522035
0.000907863
0.00163485
0.00506498
0.0108364
0.014685
0.0126772
0.00355319
0.0105121
0.00441326
0.00879572
0.00427819
0.00763012
0.00327744
0.00685915
0.00217138
0.00631664
0.00113785
0.00576875
0.000236523
0.00513473
-0.000506992
0.00443606
-0.001093
0.00369721
-0.00152877
0.00293595
-0.00184327
0.00217866
-0.00209568
0.00149089
-0.0024085
0.001032
-0.00298469
0.000631285
-0.00283576
9.08676e-06
-0.00156893
-0.000450368
-0.000875824
-0.000714316
-0.000720138
-0.000893776
-0.000638591
-0.00104084
-0.00057693
-0.00117356
-0.00053694
-0.00130152
-0.000514161
-0.00143235
-0.00050398
-0.00157177
-0.00049997
-0.00172329
-0.000491267
-0.0018899
-0.000462631
-0.00207629
-0.000395968
-0.00228948
-0.000272278
-0.00253856
-7.07337e-05
-0.00280771
0.000216898
-0.00313495
0.00059921
-0.00365035
0.0010876
-0.00448459
0.00166104
-0.00568289
0.00226059
-0.00734618
0.0026598
-0.00931547
0.00249137
-0.00860619
0.000925609
-0.00318656
0.00454344
0.00488525
0.0045959
0.0043608
0.00573019
0.0031439
0.00615616
0.00285148
0.00617687
0.00215069
0.00604693
0.0012678
0.00578633
0.000497136
0.00535153
-7.21803e-05
0.00474549
-0.000486941
0.00401673
-0.000800004
0.00320752
-0.00103405
0.00235296
-0.00124112
0.00153777
-0.00159331
0.0010398
-0.00248669
0.000587962
-0.00238387
-0.000317094
-0.000663818
-0.000817386
-0.000375478
-0.00106752
-0.000469949
-0.00126049
-0.000445577
-0.00144101
-0.000396361
-0.00161583
-0.000362068
-0.00179429
-0.000335656
-0.00198575
-0.000312467
-0.00219574
-0.000289933
-0.00242401
-0.00026295
-0.00266341
-0.000223184
-0.00289925
-0.000160087
-0.00310682
-6.46583e-05
-0.00325917
8.16506e-05
-0.00336356
0.000321339
-0.00344121
0.000676899
-0.00351656
0.001163
-0.00360752
0.00175204
-0.00365078
0.0023039
-0.00353318
0.00254224
-0.00304004
0.00199829
-0.00167854
-0.000435841
-0.00477339
-0.000740716
0.00568417
0.00129671
0.00232337
0.00246856
0.00197205
0.00336216
0.00195789
0.00404263
0.00147022
0.00442806
0.000882381
0.00450455
0.000420656
0.0043313
0.000101088
0.00398807
-0.000143702
0.00350666
-0.000318588
0.00291602
-0.000443391
0.00223299
-0.000558081
0.00146766
-0.000827968
0.00066647
-0.00168543
-0.000248086
-0.00146924
-0.000950986
3.91428e-05
-0.00129654
-2.98667e-05
-0.00151567
-0.000250771
-0.00170567
-0.000255531
-0.0018784
-0.000223579
-0.00203572
-0.00020469
-0.0021824
-0.000188932
-0.00232335
-0.000171462
-0.00246182
-0.000151421
-0.00259807
-0.000126649
-0.00272815
-9.30511e-05
-0.00284346
-4.47356e-05
-0.00293068
2.26145e-05
-0.00295875
0.000109761
-0.00288299
0.00024563
-0.00266508
0.00045904
-0.00227664
0.000774597
-0.00173379
0.00120924
-0.001033
0.00160316
5.11431e-05
0.00145815
0.00137163
0.000677848
0.00160735
-0.000671506
-0.00306521
-0.0087318
-0.0114001
-0.00566649
-0.00331406
-0.00131855
0.000659754
0.00214911
0.00305071
0.00349125
0.00361323
0.00349149
0.00319591
0.00277664
0.00224391
0.00144266
-0.00021494
-0.00166131
-0.00160082
-0.00160958
-0.00183919
-0.00207358
-0.00227609
-0.00245979
-0.00262782
-0.00277854
-0.00290944
-0.00301586
-0.00308906
-0.0031144
-0.00307295
-0.00294498
-0.00268184
-0.00220603
-0.00141545
-0.00019103
0.00142618
0.00289792
0.00358948
0.00293238
)
;

boundaryField
{
    floor
    {
        type            calculated;
        value           nonuniform List<scalar> 
29
(
0
0
0
0
0
0
0
0
0
0
0
0
0
0
0
0
0
0
0
0
-5.78234e-06
-1.4945e-05
-2.25553e-05
-2.93513e-05
-2.70761e-06
-3.43174e-06
-9.13597e-06
-1.39358e-05
-1.49006e-05
)
;
    }
    ceiling
    {
        type            calculated;
        value           nonuniform List<scalar> 
43
(
-5.32281e-05
-5.12663e-05
-4.94643e-05
-2.90514e-05
-2.34521e-05
-2.0398e-05
-1.91161e-05
-1.92062e-05
-1.98708e-05
-2.08801e-05
-2.19448e-05
-2.29955e-05
-2.41084e-05
-2.53313e-05
-2.66976e-05
-2.76955e-05
-2.28062e-05
-2.12877e-05
-2.10525e-05
-2.1112e-05
-2.10855e-05
-2.10193e-05
-2.09448e-05
-2.08441e-05
-2.06936e-05
-2.04755e-05
-2.01796e-05
-1.98023e-05
-1.93421e-05
-1.87914e-05
-1.81539e-05
-1.74619e-05
-1.67213e-05
-1.59423e-05
-1.51306e-05
-1.4006e-05
-1.35432e-05
-1.36593e-05
-1.4356e-05
-1.46022e-05
6.02084e-06
3.33567e-06
-5.82108e-05
)
;
    }
    sWall
    {
        type            calculated;
        value           uniform -0.000258498;
    }
    nWall
    {
        type            calculated;
        value           nonuniform List<scalar> 6(-5.82863e-05 -6.95553e-05 -7.51496e-05 -9.16564e-05 -0.00010079 -0.000118177);
    }
    sideWalls
    {
        type            empty;
        value           nonuniform 0();
    }
    glass1
    {
        type            calculated;
        value           nonuniform List<scalar> 9(-6.64528e-05 -0.000177389 -0.000267885 -0.000341614 -0.00040203 -0.000452051 -0.000494858 -0.000549991 -0.000612644);
    }
    glass2
    {
        type            calculated;
        value           nonuniform List<scalar> 2(-0.000317435 -0.000354604);
    }
    sun
    {
        type            calculated;
        value           uniform 0;
    }
    heatsource1
    {
        type            calculated;
        value           nonuniform List<scalar> 3(2.05634e-07 2.05475e-07 2.05485e-07);
    }
    heatsource2
    {
        type            calculated;
        value           nonuniform List<scalar> 4(5.12388e-08 5.14608e-08 0 0);
    }
    Table_master
    {
        type            calculated;
        value           nonuniform List<scalar> 9(-1.54296e-07 -1.54348e-07 -1.54357e-07 -1.54363e-07 -1.54366e-07 -1.54367e-07 -1.54363e-07 -1.5435e-07 -1.54306e-07);
    }
    Table_slave
    {
        type            calculated;
        value           nonuniform List<scalar> 9(1.54241e-07 1.54209e-07 1.54143e-07 1.54087e-07 1.5405e-07 1.54044e-07 1.54055e-07 1.54094e-07 1.54184e-07);
    }
    inlet
    {
        type            calculated;
        value           uniform -0.00587551;
    }
    outlet
    {
        type            calculated;
        value           nonuniform List<scalar> 2(0.00904353 0.00271961);
    }
}


// ************************************************************************* //
