// -*- C++ -*-
// File generated by PyFoam - sorry for the ugliness

FoamFile
{
 version 2.0;
 format ascii;
 class volScalarField;
 location "600";
 object T;
}

dimensions [ 0 0 0 1 0 0 0 ];

internalField nonuniform List<scalar> 459
(
  302.493
  302.176
  302.166
  302.164
  302.163
  302.161
  302.16
  302.158
  302.156
  302.153
  302.149
  302.143
  302.136
  302.127
  302.119
  302.166
  302.158
  302.155
  302.154
  302.153
  302.152
  302.152
  302.151
  302.151
  302.151
  302.151
  302.15
  302.15
  302.149
  302.149
  302.149
  302.148
  302.147
  302.16
  302.724
  302.206
  302.183
  302.187
  302.191
  302.195
  302.198
  302.199
  302.199
  302.198
  302.19
  302.177
  302.158
  302.134
  302.11
  302.095
  302.091
  302.148
  302.142
  302.139
  302.137
  302.134
  302.13
  302.126
  302.122
  302.118
  302.114
  302.11
  302.106
  302.103
  302.1
  302.099
  302.099
  302.101
  302.105
  302.139
  302.956
  302.251
  302.209
  302.22
  302.235
  302.248
  302.26
  302.269
  302.275
  302.275
  302.265
  302.243
  302.209
  302.167
  302.127
  302.101
  302.096
  302.142
  302.146
  302.146
  302.145
  302.142
  302.138
  302.129
  302.121
  302.113
  302.106
  302.099
  302.092
  302.086
  302.08
  302.076
  302.076
  302.078
  302.084
  302.127
  303.179
  302.313
  302.236
  302.252
  302.278
  302.303
  302.327
  302.348
  302.361
  302.366
  302.354
  302.323
  302.272
  302.208
  302.146
  302.102
  302.098
  302.119
  302.137
  302.153
  302.159
  302.159
  302.156
  302.153
  302.151
  302.149
  302.148
  302.146
  302.144
  302.141
  302.137
  302.132
  302.126
  302.103
  302.086
  302.08
  302.124
  303.387
  302.394
  302.265
  302.277
  302.309
  302.345
  302.381
  302.415
  302.441
  302.452
  302.442
  302.404
  302.338
  302.254
  302.167
  302.101
  302.091
  302.116
  302.147
  302.166
  302.173
  302.175
  302.173
  302.172
  302.171
  302.171
  302.17
  302.169
  302.166
  302.161
  302.154
  302.146
  302.135
  302.118
  302.096
  302.081
  302.112
  302.16
  302.187
  302.2
  303.566
  302.499
  302.321
  302.299
  302.327
  302.365
  302.407
  302.45
  302.489
  302.514
  302.512
  302.47
  302.394
  302.294
  302.186
  302.097
  302.085
  302.118
  302.157
  302.18
  302.189
  302.191
  302.191
  302.191
  302.191
  302.191
  302.191
  302.189
  302.185
  302.178
  302.169
  302.157
  302.144
  302.126
  302.105
  302.087
  302.099
  302.12
  302.127
  302.164
  303.705
  302.676
  302.488
  302.391
  302.372
  302.388
  302.42
  302.459
  302.505
  302.549
  302.55
  302.504
  302.421
  302.313
  302.195
  302.091
  302.08
  302.12
  302.168
  302.194
  302.204
  302.207
  302.208
  302.21
  302.211
  302.212
  302.211
  302.209
  302.204
  302.196
  302.183
  302.167
  302.151
  302.134
  302.115
  302.096
  302.096
  302.103
  302.111
  302.142
  303.939
  303.18
  302.967
  302.769
  302.628
  302.553
  302.527
  302.533
  302.564
  302.587
  302.567
  302.504
  302.409
  302.297
  302.178
  302.073
  302.075
  302.124
  302.181
  302.208
  302.218
  302.223
  302.225
  302.228
  302.23
  302.231
  302.231
  302.229
  302.225
  302.217
  302.205
  302.187
  302.17
  302.154
  302.14
  302.128
  302.131
  302.154
  302.186
  302.36
  304.268
  303.94
  303.629
  303.349
  303.118
  302.947
  302.833
  302.766
  302.721
  302.651
  302.556
  302.449
  302.34
  302.23
  302.122
  302.031
  302.071
  302.134
  302.198
  302.224
  302.234
  302.239
  302.242
  302.246
  302.249
  302.252
  302.253
  302.253
  302.252
  302.25
  302.25
  302.253
  302.259
  302.275
  302.302
  302.341
  302.39
  302.437
  302.465
  302.532
  295.734
  299.62
  301.316
  301.914
  302.155
  302.249
  302.27
  302.266
  302.24
  302.198
  302.147
  302.089
  302.024
  301.971
  302.083
  302.16
  302.218
  302.241
  302.25
  302.255
  302.259
  302.264
  302.269
  302.273
  302.277
  302.282
  302.286
  302.291
  302.297
  302.303
  302.312
  302.328
  302.351
  302.38
  302.413
  302.438
  302.448
  302.46
  296.534
  299.561
  300.801
  301.411
  301.717
  301.86
  301.919
  301.939
  301.95
  301.952
  301.947
  301.936
  301.918
  301.92
  302.135
  302.21
  302.244
  302.261
  302.269
  302.273
  302.278
  302.282
  302.286
  302.291
  302.295
  302.3
  302.306
  302.311
  302.317
  302.324
  302.332
  302.344
  302.361
  302.382
  302.404
  302.423
  302.412
  302.441
  298.475
  298.414
  298.41
  300.286
  300.988
  301.392
  301.62
  301.707
  301.75
  301.772
  301.788
  301.803
  301.817
  301.83
  301.844
  301.901
  302.243
  302.276
  302.29
  302.298
  302.304
  302.308
  302.312
  302.316
  302.319
  302.322
  302.325
  302.328
  302.33
  302.333
  302.335
  302.339
  302.343
  302.349
  302.358
  302.376
  302.388
  302.393
  302.394
  302.429
)
;

boundaryField
{
  floor
  {
    type wallHeatTransfer;
    Tinf uniform 305.2;
    alphaWall uniform 0.24;
    value nonuniform List<scalar> 29
(
  302.48
  302.622
  302.637
  302.654
  302.669
  302.683
  302.696
  302.711
  302.725
  302.74
  302.754
  302.768
  302.783
  302.797
  302.812
  302.828
  302.845
  302.865
  302.881
  302.93
  302.93
  302.802
  302.728
  302.683
  302.48
  302.622
  302.553
  302.513
  302.453
)
;
  }
  ceiling
  {
    type wallHeatTransfer;
    Tinf uniform 303.2;
    alphaWall uniform 0.24;
    value nonuniform List<scalar> 43
(
  298.764
  298.694
  298.679
  300.443
  301.114
  301.502
  301.722
  301.81
  301.857
  301.885
  301.907
  301.927
  301.947
  301.967
  301.988
  302.051
  302.366
  302.39
  302.403
  302.412
  302.417
  302.421
  302.425
  302.428
  302.431
  302.433
  302.434
  302.434
  302.434
  302.434
  302.433
  302.432
  302.433
  302.434
  302.438
  302.45
  302.459
  302.466
  302.47
  302.507
  304.218
  303.911
  296.893
)
;
  }
  sWall
  {
    type wallHeatTransfer;
    Tinf uniform 315.2;
    alphaWall uniform 0.36;
    value uniform 299.969;
  }
  nWall
  {
    type wallHeatTransfer;
    Tinf uniform 307.2;
    alphaWall uniform 0.36;
    value nonuniform List<scalar> 6
(
  303.065
  303.009
  302.917
  303.109
  303.086
  303.117
)
;
  }
  sideWalls
  {
    type empty;
  }
  glass1
  {
    type wallHeatTransfer;
    Tinf uniform 315.2;
    alphaWall uniform 4.3;
    value nonuniform List<scalar> 9
(
  311.914
  311.107
  310.557
  310.106
  309.732
  309.408
  309.125
  309.168
  309.389
)
;
  }
  glass2
  {
    type wallHeatTransfer;
    Tinf uniform 307.2;
    alphaWall uniform 4.3;
    value nonuniform List<scalar> 2
(
  305.251
  305.404
)
;
  }
  sun
  {
    type wallHeatTransfer;
    Tinf uniform 305.2;
    alphaWall uniform 0.24;
    value nonuniform List<scalar> 14
(
  302.859
  302.57
  302.563
  302.553
  302.544
  302.536
  302.53
  302.524
  302.518
  302.512
  302.506
  302.499
  302.492
  302.486
)
;
  }
  heatsource1
  {
    type fixedGradient;
    gradient uniform 0;
  }
  heatsource2
  {
    type fixedGradient;
    gradient uniform 0;
  }
  Table_master
  {
    type zeroGradient;
  }
  Table_slave
  {
    type zeroGradient;
  }
  inlet
  {
    type fixedValue;
    value uniform 290.15;
  }
  outlet
  {
    type zeroGradient;
  }
} 	// ************************************************************************* //

