// -*- C++ -*-
// File generated by PyFoam - sorry for the ugliness

FoamFile
{
 version 2.0;
 format ascii;
 class volVectorField;
 location "2500";
 object U;
}

dimensions [ 0 1 -1 0 0 0 0 ];

internalField nonuniform List<vector> 459
(
  (0.0332772 0.0882627 0)
  (-0.171737 0.026504 0)
  (-0.196964 0.0178682 0)
  (-0.227689 0.0118779 0)
  (-0.249297 0.00532619 0)
  (-0.260818 -0.00152613 0)
  (-0.260797 -0.00868552 0)
  (-0.248595 -0.01611 0)
  (-0.225164 -0.023047 0)
  (-0.192575 -0.0283972 0)
  (-0.154285 -0.0313366 0)
  (-0.114075 -0.0315803 0)
  (-0.0755132 -0.0294718 0)
  (-0.0436499 -0.0264271 0)
  (-0.0335809 -0.0242258 0)
  (-0.00304927 0.0088519 0)
  (-0.0286352 -0.0193432 0)
  (-0.00350848 -0.0292807 0)
  (0.020836 -0.0218297 0)
  (0.0378672 -0.0147115 0)
  (0.0508726 -0.00940132 0)
  (0.0587275 -0.00558327 0)
  (0.0626925 -0.00359142 0)
  (0.0644831 -0.00274 0)
  (0.0654056 -0.00233303 0)
  (0.0659939 -0.00207179 0)
  (0.0663255 -0.00185894 0)
  (0.0663338 -0.00160733 0)
  (0.0658149 -0.00114478 0)
  (0.0642039 -8.64766e-05 0)
  (0.0602935 0.00209588 0)
  (0.0527766 0.00437226 0)
  (0.0462888 0.0062127 0)
  (-0.0150307 0.0227636 0)
  (0.209611 0.180332 0)
  (-0.158772 0.0697566 0)
  (-0.157456 0.0529915 0)
  (-0.188878 0.0403597 0)
  (-0.210073 0.0261897 0)
  (-0.221688 0.0105489 0)
  (-0.222211 -0.0066489 0)
  (-0.211001 -0.0244882 0)
  (-0.18958 -0.0405081 0)
  (-0.160345 -0.0522791 0)
  (-0.126778 -0.0582679 0)
  (-0.0923328 -0.0582202 0)
  (-0.0601394 -0.0527403 0)
  (-0.0335975 -0.0433831 0)
  (-0.0169618 -0.032027 0)
  (-0.00333246 -0.0140948 0)
  (-0.00381402 0.017007 0)
  (0.0728994 0.0368177 0)
  (0.0305722 -0.0200021 0)
  (0.03824 -0.0335215 0)
  (0.0500781 -0.0290391 0)
  (0.0592929 -0.0202573 0)
  (0.0655776 -0.0120937 0)
  (0.0681648 -0.00506104 0)
  (0.0685808 -0.00115425 0)
  (0.0684874 0.000489302 0)
  (0.0685685 0.00123002 0)
  (0.0687421 0.0016779 0)
  (0.0688646 0.00204981 0)
  (0.0688965 0.00252842 0)
  (0.068782 0.00345094 0)
  (0.0679771 0.00574142 0)
  (0.0639927 0.0121022 0)
  (0.053933 0.0173771 0)
  (0.0502094 0.0208335 0)
  (-0.0569376 0.0491116 0)
  (0.370779 0.269322 0)
  (-0.173762 0.110488 0)
  (-0.117712 0.0852341 0)
  (-0.147587 0.0629469 0)
  (-0.166063 0.0397373 0)
  (-0.176313 0.0144724 0)
  (-0.175803 -0.0132478 0)
  (-0.163751 -0.0414587 0)
  (-0.142852 -0.0658224 0)
  (-0.11611 -0.0826941 0)
  (-0.0870333 -0.0902538 0)
  (-0.0583069 -0.0888347 0)
  (-0.0319646 -0.0795443 0)
  (-0.0100796 -0.0642578 0)
  (0.00631264 -0.0434776 0)
  (0.017565 -0.0179754 0)
  (0.023376 0.0187927 0)
  (0.120566 -0.0357874 0)
  (0.0790356 -0.043611 0)
  (0.0729914 -0.0417637 0)
  (0.074776 -0.034443 0)
  (0.0761065 -0.0250444 0)
  (0.0769696 -0.0169286 0)
  (0.0752746 -0.0135304 0)
  (0.0707333 -0.00950512 0)
  (0.0675549 -0.00731482 0)
  (0.0661272 -0.00605973 0)
  (0.0655106 -0.00525941 0)
  (0.0651969 -0.00470505 0)
  (0.0651979 -0.00419528 0)
  (0.0659911 -0.00335363 0)
  (0.0687954 -0.000164996 0)
  (0.0664548 0.0173511 0)
  (0.0521272 0.0295101 0)
  (0.0569651 0.037332 0)
  (-0.0945115 0.0757855 0)
  (0.515584 0.340652 0)
  (-0.206642 0.146425 0)
  (-0.07651 0.112299 0)
  (-0.103766 0.0816854 0)
  (-0.116466 0.0516112 0)
  (-0.122399 0.0181126 0)
  (-0.117132 -0.0200457 0)
  (-0.101969 -0.0585549 0)
  (-0.0812603 -0.0899113 0)
  (-0.0581454 -0.110092 0)
  (-0.0355805 -0.117785 0)
  (-0.0147287 -0.114568 0)
  (0.0040668 -0.101736 0)
  (0.0196593 -0.0822166 0)
  (0.0332024 -0.0581595 0)
  (0.0480096 -0.0309116 0)
  (0.070478 -0.000816529 0)
  (0.102662 0.013687 0)
  (0.108564 -0.0283313 0)
  (0.0931081 -0.0378962 0)
  (0.0837028 -0.0353821 0)
  (0.0789283 -0.0298293 0)
  (0.0755571 -0.0225305 0)
  (0.073679 -0.0136557 0)
  (0.0753066 -0.00799396 0)
  (0.0798521 -0.00611352 0)
  (0.0835518 -0.00504036 0)
  (0.0858937 -0.00421974 0)
  (0.087151 -0.00322797 0)
  (0.0867044 -0.00178738 0)
  (0.0835621 0.000299899 0)
  (0.0764781 0.0033352 0)
  (0.062462 0.0078947 0)
  (0.0507942 0.0286633 0)
  (0.0383097 0.0456119 0)
  (0.0607039 0.0582778 0)
  (-0.139791 0.0983379 0)
  (0.639742 0.395759 0)
  (-0.24713 0.175648 0)
  (-0.0367617 0.127272 0)
  (-0.0579871 0.0917466 0)
  (-0.0621019 0.0575373 0)
  (-0.0596421 0.0174397 0)
  (-0.0427487 -0.0308796 0)
  (-0.0234083 -0.0768582 0)
  (-0.00473143 -0.110995 0)
  (0.011769 -0.130717 0)
  (0.0244176 -0.135699 0)
  (0.0343725 -0.129591 0)
  (0.0420372 -0.114778 0)
  (0.0482982 -0.0939375 0)
  (0.0543719 -0.0697276 0)
  (0.0621541 -0.0452805 0)
  (0.0743349 -0.0265392 0)
  (0.0850309 -0.0251141 0)
  (0.0860054 -0.0333959 0)
  (0.078905 -0.0335154 0)
  (0.0701528 -0.0294006 0)
  (0.0632659 -0.0243497 0)
  (0.0582483 -0.0187384 0)
  (0.0554039 -0.0125986 0)
  (0.0552672 -0.00682231 0)
  (0.0574757 -0.00408831 0)
  (0.0599602 -0.003041 0)
  (0.0623143 -0.00214369 0)
  (0.0644298 -0.000374097 0)
  (0.0658769 0.00275973 0)
  (0.0654698 0.00733356 0)
  (0.0626523 0.0135211 0)
  (0.0566923 0.0220013 0)
  (0.049589 0.0378555 0)
  (0.0382412 0.0569665 0)
  (0.0681263 0.0781022 0)
  (-0.038177 0.110322 0)
  (0.0475657 0.0250098 0)
  (-0.0691276 -0.037548 0)
  (-0.286056 -0.0611339 0)
  (0.729088 0.441442 0)
  (-0.286345 0.19485 0)
  (-0.00691151 0.121501 0)
  (-0.00963317 0.0896078 0)
  (-0.000698962 0.054053 0)
  (0.0197939 0.00489929 0)
  (0.0494829 -0.0506959 0)
  (0.0692014 -0.0947504 0)
  (0.0814656 -0.124226 0)
  (0.0869938 -0.139176 0)
  (0.0871756 -0.140999 0)
  (0.0837912 -0.132302 0)
  (0.0783451 -0.115898 0)
  (0.0724251 -0.0947092 0)
  (0.067474 -0.0714778 0)
  (0.0647524 -0.0492151 0)
  (0.0649834 -0.0319689 0)
  (0.0650842 -0.0247185 0)
  (0.0611313 -0.0242894 0)
  (0.0532997 -0.0237622 0)
  (0.0446377 -0.0213031 0)
  (0.0375399 -0.0180008 0)
  (0.0325144 -0.0143923 0)
  (0.0298207 -0.0106287 0)
  (0.0295468 -0.00748256 0)
  (0.0312386 -0.00633256 0)
  (0.0338498 -0.00617576 0)
  (0.0369769 -0.00570962 0)
  (0.0404282 -0.003889 0)
  (0.0440549 0.000140627 0)
  (0.0470428 0.00648478 0)
  (0.0485794 0.014828 0)
  (0.0489156 0.0254214 0)
  (0.0496096 0.040118 0)
  (0.0476617 0.0586859 0)
  (0.0763075 0.0834096 0)
  (0.0479129 0.10279 0)
  (0.0976088 0.0684131 0)
  (0.122255 0.0447795 0)
  (-0.138259 -0.00972524 0)
  (0.785967 0.483213 0)
  (-0.304174 0.179263 0)
  (0.0241052 0.0652439 0)
  (0.0578778 0.05498 0)
  (0.0841718 0.0289413 0)
  (0.128369 -0.0252764 0)
  (0.156981 -0.0735835 0)
  (0.17072 -0.107839 0)
  (0.171636 -0.12798 0)
  (0.162429 -0.13541 0)
  (0.146273 -0.131992 0)
  (0.126272 -0.12018 0)
  (0.105116 -0.102755 0)
  (0.0850446 -0.0823758 0)
  (0.067646 -0.0612344 0)
  (0.0538939 -0.0417331 0)
  (0.0440124 -0.0267879 0)
  (0.0363771 -0.0187903 0)
  (0.0287107 -0.0162165 0)
  (0.0204849 -0.0152866 0)
  (0.0128219 -0.0139684 0)
  (0.00679045 -0.0123627 0)
  (0.00269778 -0.0107502 0)
  (0.000669726 -0.00925461 0)
  (0.000660123 -0.00835434 0)
  (0.00219743 -0.00857569 0)
  (0.004608 -0.00925793 0)
  (0.0076438 -0.00947123 0)
  (0.0113555 -0.00829745 0)
  (0.0159012 -0.00469062 0)
  (0.0224384 0.00230289 0)
  (0.0285583 0.0114342 0)
  (0.0345745 0.022061 0)
  (0.0424351 0.0349323 0)
  (0.0504653 0.0498346 0)
  (0.0766914 0.0698218 0)
  (0.0896289 0.0775498 0)
  (0.12644 0.050909 0)
  (0.1687 0.0418852 0)
  (-0.0321721 0.0953236 0)
  (0.893956 0.482612 0)
  (-0.0560938 0.157632 0)
  (0.119651 -0.0236342 0)
  (0.208221 -0.0598263 0)
  (0.254311 -0.0733931 0)
  (0.279165 -0.0900741 0)
  (0.287824 -0.105437 0)
  (0.279781 -0.115101 0)
  (0.257255 -0.117942 0)
  (0.224525 -0.114188 0)
  (0.186312 -0.104696 0)
  (0.146718 -0.0907192 0)
  (0.109026 -0.0741111 0)
  (0.0755433 -0.0566709 0)
  (0.047471 -0.0396007 0)
  (0.0255805 -0.0246123 0)
  (0.00997604 -0.0140246 0)
  (-0.000876255 -0.00882848 0)
  (-0.00893203 -0.00761181 0)
  (-0.0156873 -0.00770432 0)
  (-0.0213127 -0.00782061 0)
  (-0.0256088 -0.00786794 0)
  (-0.0285654 -0.00797801 0)
  (-0.0302111 -0.00827144 0)
  (-0.0306913 -0.00896534 0)
  (-0.0303873 -0.01015 0)
  (-0.0297002 -0.0114915 0)
  (-0.0287389 -0.0125106 0)
  (-0.0273218 -0.0126927 0)
  (-0.025004 -0.0114394 0)
  (-0.0207056 -0.00798984 0)
  (-0.0109612 -0.00166238 0)
  (-0.00158771 0.00638916 0)
  (0.0102105 0.0146162 0)
  (0.0226226 0.0215754 0)
  (0.0451945 0.0299015 0)
  (0.0653532 0.023484 0)
  (0.0845002 -0.00278608 0)
  (0.145056 0.051178 0)
  (-0.474431 0.217985 0)
  (1.04629 0.426972 0)
  (0.495637 0.278748 0)
  (0.51479 0.172868 0)
  (0.549869 0.0945884 0)
  (0.529764 0.0405694 0)
  (0.481926 -0.00216698 0)
  (0.42665 -0.0333431 0)
  (0.366248 -0.0522381 0)
  (0.301565 -0.0601891 0)
  (0.235997 -0.0597398 0)
  (0.173641 -0.0536009 0)
  (0.11739 -0.0437642 0)
  (0.0694849 -0.0324079 0)
  (0.0303903 -0.021206 0)
  (-0.000713818 -0.0109946 0)
  (-0.0219266 -0.00411797 0)
  (-0.0339764 -0.00120711 0)
  (-0.0413086 -0.000674164 0)
  (-0.0464056 -0.00139614 0)
  (-0.0507685 -0.00247717 0)
  (-0.0545768 -0.00355358 0)
  (-0.057815 -0.00460981 0)
  (-0.0605298 -0.00571007 0)
  (-0.0628223 -0.00688921 0)
  (-0.0649111 -0.00818686 0)
  (-0.0671415 -0.00953635 0)
  (-0.0698737 -0.0106762 0)
  (-0.0734053 -0.0112182 0)
  (-0.0780396 -0.0106704 0)
  (-0.0842056 -0.00840515 0)
  (-0.0924911 -0.00366373 0)
  (-0.102832 0.00412227 0)
  (-0.113568 0.014611 0)
  (-0.129306 0.0278988 0)
  (-0.154115 0.0438031 0)
  (-0.19013 0.0608043 0)
  (-0.241856 0.0744804 0)
  (-0.303571 0.0826362 0)
  (-0.381084 0.0860917 0)
  (-0.65531 0.0802157 0)
  (-0.180205 -0.020571 0)
  (0.10024 -0.0357808 0)
  (0.177111 -0.0552443 0)
  (0.164171 -0.0477236 0)
  (0.144923 -0.0345747 0)
  (0.120814 -0.0226209 0)
  (0.0888635 -0.0124068 0)
  (0.0530411 -0.00442616 0)
  (0.0181903 0.00107342 0)
  (-0.0146948 0.00474125 0)
  (-0.0382993 0.00605711 0)
  (-0.055491 0.00617759 0)
  (-0.0664261 0.00522551 0)
  (-0.072113 0.0031493 0)
  (-0.0753255 0.000678765 0)
  (-0.0775316 -0.00184298 0)
  (-0.079569 -0.00438715 0)
  (-0.0817457 -0.00677031 0)
  (-0.0842287 -0.00880996 0)
  (-0.0869614 -0.0103019 0)
  (-0.0897909 -0.0113661 0)
  (-0.0927729 -0.0120761 0)
  (-0.0960853 -0.01247 0)
  (-0.0999118 -0.0124982 0)
  (-0.104364 -0.0119646 0)
  (-0.109415 -0.0105273 0)
  (-0.114853 -0.00772999 0)
  (-0.120263 -0.00305236 0)
  (-0.125027 0.00387135 0)
  (-0.128677 0.0133097 0)
  (-0.13159 0.0261821 0)
  (-0.13404 0.042993 0)
  (-0.136829 0.0631453 0)
  (-0.140115 0.0835125 0)
  (-0.140049 0.0958126 0)
  (-0.117877 0.0855775 0)
  (-0.041924 0.0285006 0)
  (-0.209345 -0.186834 0)
  (0.0360709 0.198003 0)
  (0.0136536 0.0637348 0)
  (-0.0320616 0.0117554 0)
  (-0.0557089 0.0109648 0)
  (-0.0740037 0.0170473 0)
  (-0.0874892 0.0216331 0)
  (-0.0965395 0.0254135 0)
  (-0.103315 0.0285591 0)
  (-0.108153 0.0304901 0)
  (-0.111324 0.0309456 0)
  (-0.112606 0.0304134 0)
  (-0.112529 0.0301084 0)
  (-0.111325 0.0302024 0)
  (-0.109586 0.0307538 0)
  (-0.107933 0.0319927 0)
  (-0.106608 0.0338292 0)
  (-0.105735 0.0358682 0)
  (-0.105338 0.037622 0)
  (-0.105396 0.0386114 0)
  (-0.105812 0.0383911 0)
  (-0.106615 0.0372427 0)
  (-0.107793 0.0356759 0)
  (-0.109345 0.0338017 0)
  (-0.111246 0.0317075 0)
  (-0.113426 0.0295008 0)
  (-0.115747 0.0272933 0)
  (-0.117963 0.0251667 0)
  (-0.119594 0.0233765 0)
  (-0.119843 0.02316 0)
  (-0.117544 0.0257073 0)
  (-0.111247 0.032038 0)
  (-0.0997558 0.043067 0)
  (-0.0831949 0.0586409 0)
  (-0.0630782 0.0747885 0)
  (-0.0423563 0.0819955 0)
  (0.0395786 0.0328336 0)
  (0.150394 -0.0588693 0)
  (-0.0518062 -0.0627507 0)
  (-0.0916222 -0.346672 0)
  (-0.446874 -0.138593 0)
  (-0.333653 0.0441863 0)
  (-0.291909 -0.044531 0)
  (-0.251131 -0.0510583 0)
  (-0.239893 -0.043715 0)
  (-0.23194 -0.036735 0)
  (-0.22269 -0.0323419 0)
  (-0.211103 -0.0301368 0)
  (-0.197453 -0.0302278 0)
  (-0.182718 -0.0331445 0)
  (-0.168298 -0.0388784 0)
  (-0.155417 -0.0466466 0)
  (-0.144687 -0.0551686 0)
  (-0.136195 -0.0639183 0)
  (-0.129786 -0.0726778 0)
  (-0.125088 -0.0811303 0)
  (-0.121657 -0.0889218 0)
  (-0.119156 -0.095658 0)
  (-0.117374 -0.100904 0)
  (-0.116219 -0.1043 0)
  (-0.115695 -0.105637 0)
  (-0.115791 -0.105096 0)
  (-0.116398 -0.103251 0)
  (-0.117355 -0.100264 0)
  (-0.118494 -0.0962318 0)
  (-0.119595 -0.0911576 0)
  (-0.12035 -0.0849364 0)
  (-0.120358 -0.0773189 0)
  (-0.119091 -0.0681901 0)
  (-0.115582 -0.0581112 0)
  (-0.108002 -0.0470061 0)
  (-0.0937677 -0.0345571 0)
  (-0.0707334 -0.0200644 0)
  (-0.039371 -0.0030375 0)
  (0.00554313 0.0160663 0)
  (0.0466872 0.00786922 0)
  (0.10764 -0.0467301 0)
  (0.11929 -0.0880634 0)
  (-0.517229 0.011149 0)
)
;

boundaryField
{
  floor
  {
    type noSlip;
  }
  ceiling
  {
    type noSlip;
  }
  sWall
  {
    type noSlip;
  }
  nWall
  {
    type noSlip;
  }
  sideWalls
  {
    type empty;
  }
  glass1
  {
    type noSlip;
  }
  glass2
  {
    type noSlip;
  }
  sun
  {
    type noSlip;
  }
  heatsource1
  {
    type noSlip;
  }
  heatsource2
  {
    type noSlip;
  }
  Table_master
  {
    type noSlip;
  }
  Table_slave
  {
    type noSlip;
  }
  inlet
  {
    type fixedValue;
    value uniform (0.277164 -0.114805 0);
  }
  outlet
  {
    type zeroGradient;
  }
} 	// ************************************************************************* //

