/*--------------------------------*- C++ -*----------------------------------*\
  =========                 |
  \\      /  F ield         | OpenFOAM: The Open Source CFD Toolbox
   \\    /   O peration     | Website:  https://openfoam.org
    \\  /    A nd           | Version:  6
     \\/     M anipulation  |
\*---------------------------------------------------------------------------*/
FoamFile
{
    version     2.0;
    format      ascii;
    class       surfaceScalarField;
    location    "2700";
    object      phi;
}
// * * * * * * * * * * * * * * * * * * * * * * * * * * * * * * * * * * * * * //

dimensions      [1 0 -1 0 0 0 0];

internalField   nonuniform List<scalar> 
852
(
-0.00304106
0.00310087
-0.00412291
0.00108184
-0.00492626
0.000803347
-0.00553913
0.000612871
-0.00592981
0.000390685
-0.00607459
0.000144782
-0.00595253
-0.000122058
-0.00555332
-0.000399216
-0.00490326
-0.000650063
-0.0040677
-0.000835552
-0.00313731
-0.000930391
-0.00220812
-0.000929194
-0.00136494
-0.000843174
-0.000646562
-0.000718383
-0.0006445
-0.000809372
0.000813081
-0.000477492
-0.00033188
0.000189026
-0.000666518
0.000718593
-0.000529567
0.00107303
-0.000354441
0.00129498
-0.000221947
0.00141605
-0.000121069
0.00147561
-5.9559e-05
0.00150895
-3.33451e-05
0.00152939
-2.04397e-05
0.00154107
-1.16758e-05
0.00154533
-4.26405e-06
0.00154044
4.89398e-06
0.0015182
2.2238e-05
0.00145603
6.21682e-05
0.0013162
0.000139834
0.00108655
0.00022965
0.000803792
0.000282757
0.000808828
-0.00216461
0.00542614
-0.00321032
0.00212756
-0.00403185
0.00162487
-0.00463335
0.00121438
-0.00501672
0.000774056
-0.00516685
0.000294913
-0.00506021
-0.000228702
-0.00469296
-0.000766465
-0.00410363
-0.0012394
-0.00336402
-0.00157516
-0.00256068
-0.00173373
-0.00177373
-0.00171614
-0.00107455
-0.00154236
-0.000539577
-0.00125336
-0.000311924
-0.000872153
4.98067e-05
-0.000361782
4.97552e-05
0.000370782
0.000452969
0.000800047
-0.000761145
0.00106383
-0.000930302
0.00129125
-0.000756988
0.00146523
-0.000528419
0.00156977
-0.000326483
0.00158673
-0.000138031
0.00159096
-6.37943e-05
0.00159608
-3.84649e-05
0.00160029
-2.46506e-05
0.00160296
-1.43368e-05
0.00160429
-5.60175e-06
0.00160346
5.72789e-06
0.00159677
2.89283e-05
0.00155481
0.000104129
0.001375
0.000319645
0.00106653
0.00053812
0.000684908
0.000664377
0.00150649
-0.00151047
0.00718206
-0.00240876
0.00302585
-0.00313227
0.00234838
-0.00364205
0.00172416
-0.00396941
0.00110142
-0.00409339
0.000418886
-0.00397036
-0.000351726
-0.00359994
-0.00113689
-0.00304437
-0.00179497
-0.00238441
-0.00223511
-0.00169973
-0.00241841
-0.00104782
-0.00236805
-0.000475831
-0.00211435
-2.00064e-05
-0.00170918
0.00028173
-0.00117389
0.000436694
-0.000516747
0.000486449
0.00160066
-0.00113632
0.00182832
-0.000988801
0.00177968
-0.00088167
0.00176432
-0.000741627
0.00178292
-0.000547012
0.00180176
-0.000345325
0.00166388
0.00160024
0.00156193
0.00153743
0.00152325
0.0015178
0.00152368
0.00155277
0.00165705
0.00135887
0.00061782
0.00100226
0.000894735
0.000571838
0.0010948
0.00209754
-0.00104997
0.00854968
-0.00175819
0.00373408
-0.00222911
0.0028193
-0.00255282
0.00204787
-0.00274995
0.00129855
-0.00277901
0.000447947
-0.00257531
-0.000555428
-0.0021704
-0.00154179
-0.00165709
-0.00230829
-0.00111144
-0.00278076
-0.000591014
-0.00293883
-0.000120644
-0.00283842
0.000285954
-0.00252095
0.000627403
-0.00205063
0.000938902
-0.00148539
0.00130802
-0.000885862
0.00216375
-0.000369279
0.00261125
-0.000437255
0.00218604
-0.00071111
0.00204159
-0.000844358
0.00191508
-0.000755153
0.00180454
-0.00063109
0.00174071
-0.000483182
0.00170641
-0.000311023
0.00183412
-0.00012787
0.00191183
-7.7856e-05
0.00197228
-6.06086e-05
0.00201601
-4.38803e-05
0.00202781
-1.19563e-05
0.00198626
4.13995e-05
0.00186699
0.000119115
0.00163789
0.000228946
0.00124401
0.000393724
0.00110041
0.000761425
0.000785595
0.00120954
0.000301969
0.00157843
0.00242462
-0.000732087
0.00966075
-0.00126618
0.00426817
-0.0013493
0.00290241
-0.00138453
0.0020831
-0.00136499
0.00127902
-0.0011817
0.000264649
-0.00081323
-0.000923894
-0.000375586
-0.00197944
4.35595e-05
-0.00272743
0.000399256
-0.00313646
0.000680987
-0.00322056
0.00089428
-0.00305171
0.00106138
-0.00268804
0.00120723
-0.00219648
0.00136473
-0.00164289
0.00158055
-0.00110168
0.00189478
-0.000683508
0.00201087
-0.000553344
0.00191065
-0.000610896
0.00171826
-0.000651968
0.00155383
-0.000590721
0.00141715
-0.000494412
0.00132087
-0.000386902
0.00127986
-0.000270013
0.00132119
-0.000169198
0.00137031
-0.000126971
0.00142385
-0.000114151
0.00147783
-9.78603e-05
0.0015205
-5.46281e-05
0.00153147
3.04335e-05
0.00149046
0.000160119
0.00138576
0.000333652
0.00121888
0.000560604
0.00107039
0.000909912
0.000905226
0.00137471
0.000507356
0.00197629
0.000379219
0.00255276
-0.00111799
0.00149701
-0.00157819
0.000459988
-0.00152415
-0.000635112
0.0107266
-0.000993715
0.00462678
-0.000534074
0.00244277
-9.83898e-05
0.00164741
0.000293471
0.000887155
0.000805725
-0.000247606
0.00133119
-0.00144936
0.00171479
-0.00236303
0.00193493
-0.00294758
0.0020128
-0.00321434
0.00198977
-0.00319753
0.00189531
-0.00295725
0.00176693
-0.00255966
0.00164157
-0.00207113
0.00155024
-0.00155156
0.00151438
-0.00106581
0.00152379
-0.000692915
0.00147656
-0.000506114
0.00133196
-0.000466294
0.00113327
-0.000453284
0.000955016
-0.000412464
0.000815924
-0.000355321
0.000723642
-0.00029462
0.000688024
-0.000234394
0.000708398
-0.000189572
0.000758395
-0.000176968
0.000825307
-0.000181063
0.000903779
-0.000176332
0.000987836
-0.000138685
0.00106293
-4.46589e-05
0.00111068
0.000112363
0.00112939
0.000314945
0.00112715
0.000562845
0.00115299
0.000884077
0.00126114
0.00126656
0.00145559
0.00178184
0.00195714
0.0020512
0.00223732
0.00121683
0.0018549
0.000842405
0.000395473
-0.000661924
0.0118666
-0.00051396
0.00447881
0.000719685
0.00120913
0.00164503
0.000722067
0.00250362
2.85672e-05
0.00329607
-0.00104006
0.0037808
-0.00193409
0.00395714
-0.00253937
0.00387128
-0.00286172
0.00358765
-0.0029307
0.00317767
-0.00278756
0.0027048
-0.00248438
0.00222661
-0.00208147
0.00179023
-0.00163474
0.00142466
-0.001186
0.00114315
-0.000784303
0.000937491
-0.000487257
0.000759629
-0.000328252
0.000571937
-0.000278602
0.000385385
-0.000266732
0.000227254
-0.000254333
0.000109964
-0.000238031
3.74898e-05
-0.000222146
1.30368e-05
-0.000209941
3.2059e-05
-0.000208594
7.89239e-05
-0.000223833
0.000143167
-0.000245306
0.000223507
-0.000256673
0.000324579
-0.000239757
0.000452121
-0.000172201
0.000590375
-2.58913e-05
0.000727948
0.000177371
0.000879332
0.000411461
0.00108497
0.000678436
0.00140083
0.000950698
0.00190145
0.00128123
0.00265142
0.00130123
0.00323282
0.00063543
0.00330233
0.000772895
0.00376769
0.00277161
0.00963028
0.00355305
0.00369737
0.00417957
0.000582607
0.00519008
-0.000288439
0.00611658
-0.000897941
0.00657567
-0.00149914
0.00659162
-0.00195004
0.00623705
-0.0021848
0.00560181
-0.00222648
0.0047859
-0.00211479
0.003888
-0.00188966
0.00299043
-0.00158682
0.00215964
-0.00125068
0.00144231
-0.000917408
0.000857654
-0.000601344
0.000414396
-0.000341046
0.000104522
-0.000177382
-0.000114303
-0.000109427
-0.000287331
-0.000105575
-0.000431609
-0.000122454
-0.000546625
-0.000139317
-0.000630962
-0.000153694
-0.000685083
-0.000168024
-0.000710262
-0.000184763
-0.000711706
-0.000207149
-0.000699546
-0.000235993
-0.000679813
-0.000265039
-0.000651356
-0.00028513
-0.000604849
-0.000286264
-0.000520248
-0.000256802
-0.000365808
-0.000180331
-0.000159042
-2.93942e-05
8.20462e-05
0.000170373
0.000380389
0.000380093
0.000748209
0.000582878
0.0012436
0.000785838
0.0017631
0.000781727
0.00185439
0.000544139
0.000828676
0.00179861
0.00489227
0.0102233
0.0139168
0.0129813
0.00151812
0.0123594
0.000333509
0.0116026
-0.000141136
0.0105585
-0.000455126
0.00924663
-0.000638137
0.00777952
-0.000717684
0.00625876
-0.000705722
0.00477173
-0.000627755
0.0033971
-0.000515029
0.00218409
-0.000373813
0.00116558
-0.000232167
0.000349431
-0.000101257
-0.000256051
4.13716e-06
-0.000648563
5.14663e-05
-0.000878379
5.24336e-05
-0.00102162
3.38105e-05
-0.00113138
4.1873e-06
-0.00122622
-2.76075e-05
-0.00130782
-5.7718e-05
-0.00137703
-8.44876e-05
-0.00143548
-0.000109576
-0.00148662
-0.000133617
-0.00153654
-0.00015723
-0.0015937
-0.000178839
-0.00166585
-0.000192882
-0.00176024
-0.000190746
-0.00188512
-0.000161379
-0.00205116
-9.07631e-05
-0.00226584
3.43454e-05
-0.0025164
0.000221171
-0.00283232
0.000486292
-0.00330055
0.00084832
-0.00402249
0.00130482
-0.00506088
0.00182423
-0.00653503
0.00225588
-0.00836092
0.00237002
-0.00804672
0.00148442
-0.00282758
0.00437555
0.00337875
0.00335889
0.00135017
0.00365002
-0.000432266
0.00358701
-0.000392122
0.00312786
-0.000178985
0.00244082
-3.0641e-05
0.00163815
9.69457e-05
0.00081337
0.000197026
4.20351e-05
0.000256306
-0.000605272
0.000273494
-0.00108965
0.000252208
-0.00141756
0.000226659
-0.00160887
0.000195447
-0.0017133
0.000155897
-0.0017778
0.000116927
-0.00182709
8.31002e-05
-0.00187601
5.31138e-05
-0.00193065
2.70248e-05
-0.00199158
3.21539e-06
-0.00205617
-1.98944e-05
-0.00212358
-4.2165e-05
-0.0021968
-6.03969e-05
-0.00227965
-7.43825e-05
-0.00237551
-8.29823e-05
-0.00248539
-8.30012e-05
-0.00260685
-6.92871e-05
-0.00273248
-3.5743e-05
-0.00284935
2.61018e-05
-0.00294874
0.000133734
-0.00303289
0.000305322
-0.00310869
0.000562092
-0.00318164
0.000921271
-0.00324997
0.00137315
-0.00325702
0.00183128
-0.00309623
0.00209508
-0.00211593
0.00138972
-0.000205034
-0.000426473
-0.00294824
-0.000789122
0.00425232
-0.00034363
0.000904679
-0.00102203
0.000246139
-0.00154261
0.000128453
-0.00189624
0.000174648
-0.00215911
0.00023223
-0.00234545
0.000283287
-0.00247387
0.000325437
-0.00255637
0.00033881
-0.00259878
0.000315903
-0.00261346
0.000266889
-0.00259996
0.000213164
-0.00256672
0.000162205
-0.00252834
0.000117519
-0.00249429
8.28707e-05
-0.00246869
5.75038e-05
-0.00245394
3.83641e-05
-0.0024498
2.28863e-05
-0.00245587
9.28347e-06
-0.00247018
-5.58949e-06
-0.0024934
-1.89446e-05
-0.00252518
-2.86161e-05
-0.00256514
-3.44215e-05
-0.00261226
-3.58598e-05
-0.00266394
-3.13254e-05
-0.0027152
-1.80279e-05
-0.00275852
7.58515e-06
-0.00278054
4.81177e-05
-0.0027604
0.000113592
-0.00267402
0.000218945
-0.00248983
0.000377898
-0.00218007
0.000611517
-0.00173911
0.00093219
-0.00113447
0.00122663
-2.98523e-05
0.00099047
0.00183694
-0.000477065
0.0034688
-0.00205834
0.000612116
-0.0078807
-0.0111398
-0.00683221
-0.0058994
-0.00563407
-0.0054902
-0.00530248
-0.00505882
-0.00476526
-0.00443029
-0.00408237
-0.00375745
-0.00348142
-0.00325888
-0.00308702
-0.00295959
-0.00286658
-0.00279872
-0.00274983
-0.00271629
-0.00269627
-0.0026911
-0.00269933
-0.0027173
-0.0027412
-0.0027667
-0.00278785
-0.00279594
-0.00277867
-0.00272116
-0.00259851
-0.00237085
-0.00198461
-0.00136517
-0.000425493
0.000808097
0.00180525
0.00133517
-0.000717032
)
;

boundaryField
{
    floor
    {
        type            calculated;
        value           nonuniform List<scalar> 
29
(
0
0
0
0
0
0
0
0
0
0
0
0
0
0
0
0
0
0
0
0
-5.03651e-06
-1.27503e-05
-1.92183e-05
-2.51081e-05
-2.06252e-06
-3.70863e-06
-1.0671e-05
-1.13713e-05
-1.0246e-05
)
;
    }
    ceiling
    {
        type            calculated;
        value           nonuniform List<scalar> 
43
(
-5.92943e-05
-5.70666e-05
-5.52801e-05
-2.81316e-05
-1.91874e-05
-1.54186e-05
-1.30749e-05
-1.14243e-05
-1.02788e-05
-9.5256e-06
-9.11433e-06
-9.01219e-06
-9.14204e-06
-9.38415e-06
-9.65248e-06
-9.90873e-06
-1.01427e-05
-1.03515e-05
-1.0527e-05
-1.06574e-05
-1.07351e-05
-1.07554e-05
-1.07222e-05
-1.06425e-05
-1.05207e-05
-1.03626e-05
-1.01698e-05
-9.9439e-06
-9.68238e-06
-9.38724e-06
-9.06547e-06
-8.71465e-06
-8.334e-06
-7.92499e-06
-7.48874e-06
-6.95858e-06
-6.68515e-06
-6.98553e-06
-6.13535e-06
-3.81889e-06
6.30756e-06
3.88137e-06
-8.44488e-05
)
;
    }
    sWall
    {
        type            calculated;
        value           uniform -0.000279553;
    }
    nWall
    {
        type            calculated;
        value           nonuniform List<scalar> 6(-5.42364e-05 -6.47267e-05 -6.9884e-05 -8.43758e-05 -9.1551e-05 -0.000101097);
    }
    sideWalls
    {
        type            empty;
        value           nonuniform 0();
    }
    glass1
    {
        type            calculated;
        value           nonuniform List<scalar> 9(-5.98027e-05 -0.000160663 -0.000245455 -0.00031765 -0.000378984 -0.000430752 -0.000478024 -0.000535323 -0.000599361);
    }
    glass2
    {
        type            calculated;
        value           nonuniform List<scalar> 2(-0.000295905 -0.000326877);
    }
    sun
    {
        type            calculated;
        value           uniform 0;
    }
    heatsource1
    {
        type            calculated;
        value           nonuniform List<scalar> 3(2.05042e-07 2.04926e-07 2.04945e-07);
    }
    heatsource2
    {
        type            calculated;
        value           nonuniform List<scalar> 4(5.14195e-08 5.15274e-08 0 0);
    }
    Table_master
    {
        type            calculated;
        value           nonuniform List<scalar> 9(-1.53794e-07 -1.53885e-07 -1.53917e-07 -1.53939e-07 -1.53955e-07 -1.53965e-07 -1.5397e-07 -1.53964e-07 -1.53931e-07);
    }
    Table_slave
    {
        type            calculated;
        value           nonuniform List<scalar> 9(1.53658e-07 1.53683e-07 1.53664e-07 1.53649e-07 1.53646e-07 1.53649e-07 1.53668e-07 1.53716e-07 1.53803e-07);
    }
    inlet
    {
        type            calculated;
        value           uniform -0.00623618;
    }
    outlet
    {
        type            calculated;
        value           nonuniform List<scalar> 2(0.00821955 0.00331617);
    }
}


// ************************************************************************* //
