/*--------------------------------*- C++ -*----------------------------------*\
  =========                 |
  \\      /  F ield         | OpenFOAM: The Open Source CFD Toolbox
   \\    /   O peration     | Website:  https://openfoam.org
    \\  /    A nd           | Version:  6
     \\/     M anipulation  |
\*---------------------------------------------------------------------------*/
FoamFile
{
    version     2.0;
    format      ascii;
    class       volScalarField;
    location    "200";
    object      alphat;
}
// * * * * * * * * * * * * * * * * * * * * * * * * * * * * * * * * * * * * * //

dimensions      [1 -1 -1 0 0 0 0];

internalField   nonuniform List<scalar> 
459
(
0.00186383
0.0020934
0.00219529
0.00233027
0.00246973
0.0025949
0.00266525
0.00267059
0.00261125
0.00248158
0.00227916
0.00208757
0.00186416
0.00164988
0.00142177
0.000853835
0.00100552
0.001183
0.00128458
0.00129382
0.00126073
0.00118262
0.00109918
0.0010238
0.0009579
0.000900428
0.000850148
0.00080572
0.00076615
0.000730063
0.000695555
0.000659886
0.000623264
0.000562915
0.00235636
0.00672933
0.00714513
0.008442
0.00959789
0.0104059
0.0110234
0.0114246
0.0115782
0.0114101
0.0109326
0.0102258
0.00927055
0.00752256
0.00505601
0.00175345
0.00141181
0.00082815
0.00219877
0.00353304
0.0046106
0.00522688
0.00510422
0.00354297
0.00291307
0.00250933
0.00221951
0.00200044
0.00182897
0.0016926
0.00156818
0.00143386
0.00130257
0.0011844
0.0012297
0.000643719
0.00275197
0.00948692
0.00935683
0.0104156
0.0110944
0.0116084
0.012154
0.0127182
0.013186
0.01337
0.0132533
0.0128669
0.0121931
0.010962
0.00894162
0.00572371
0.00172399
0.00111001
0.00236148
0.00393515
0.00553033
0.006588
0.00620992
0.00160974
0.00139623
0.00122401
0.00108623
0.000975387
0.00088537
0.000811596
0.000752323
0.000708723
0.000798289
0.00095313
0.00139281
0.000696653
0.00312428
0.0117624
0.010581
0.0111198
0.0111153
0.0112059
0.0116242
0.0123022
0.0129729
0.0134487
0.0136299
0.0135127
0.0131252
0.0123906
0.011098
0.00885174
0.00470255
0.00195981
0.00247922
0.0038504
0.00575479
0.00752027
0.00857836
0.00783669
0.00180877
0.00162189
0.00147787
0.00136166
0.00126033
0.00116634
0.00107472
0.000981362
0.000879268
0.00081471
0.000905399
0.00157278
0.000735909
0.00348649
0.0141019
0.0126887
0.0122249
0.0112046
0.0108531
0.0111494
0.0118907
0.0127401
0.0134051
0.0137317
0.0137148
0.0134334
0.0129514
0.0122276
0.0110637
0.00913609
0.00814407
0.00885613
0.00988898
0.010888
0.011551
0.0117156
0.0111041
0.00879181
0.00753444
0.00669302
0.00590782
0.00513711
0.00436264
0.00357827
0.0027942
0.00203395
0.00139656
0.0011331
0.001499
0.000860333
0.000808046
0.000957998
0.00107148
0.00374738
0.0153553
0.0148535
0.0125828
0.010993
0.0104986
0.0109202
0.0118871
0.0129605
0.0137754
0.0141598
0.0141453
0.0138967
0.0136291
0.0134258
0.0132209
0.0129247
0.0131336
0.0138778
0.014391
0.0145556
0.0143537
0.0138122
0.012921
0.0115925
0.0103499
0.00919044
0.00809268
0.00702769
0.00596944
0.00490145
0.00383928
0.00283169
0.00197791
0.00152683
0.00149344
0.00110486
0.000998489
0.00145843
0.00112594
0.00374935
0.0118441
0.0112813
0.0100042
0.00942266
0.00980082
0.0109594
0.0124841
0.0138833
0.0147915
0.0151207
0.0150431
0.0149087
0.0149989
0.0152969
0.0156423
0.0159631
0.0164037
0.0167748
0.0166761
0.0161869
0.0153955
0.0143927
0.0132324
0.0119502
0.0106997
0.0095259
0.00842703
0.0073786
0.00635638
0.00532723
0.00432371
0.00338976
0.00257201
0.00207498
0.00182585
0.00153795
0.00148304
0.00150955
0.00127311
0.00363818
0.00619135
0.00640467
0.00677313
0.00788121
0.00986726
0.0122619
0.0144174
0.0158605
0.0164026
0.0163289
0.0162737
0.0165263
0.0168007
0.0171138
0.0173791
0.0175657
0.0176471
0.0174588
0.0168439
0.0158704
0.0146663
0.0133427
0.0119689
0.0106177
0.00938183
0.00826526
0.00725165
0.00633351
0.00551065
0.00477913
0.00413389
0.00355793
0.00302366
0.00266866
0.00264184
0.00281566
0.00347606
0.00488431
0.00191995
0.00351813
0.00358297
0.00563284
0.00745363
0.0114339
0.0149833
0.0170927
0.0179418
0.0181278
0.0177037
0.0171666
0.01701
0.0172218
0.0174104
0.0174824
0.01744
0.0172623
0.0168688
0.0161581
0.0150967
0.013759
0.0122621
0.0107157
0.00922188
0.00785658
0.00664038
0.00556056
0.00462638
0.00386996
0.00331024
0.00293187
0.00269815
0.0025751
0.00254352
0.00259109
0.00269082
0.00275698
0.00271154
0.00254352
0.00179466
0.00168105
0.00799239
0.0154342
0.0175812
0.017762
0.0172988
0.0167348
0.0163292
0.0161104
0.0160803
0.0160863
0.0159848
0.0157715
0.0154416
0.0149414
0.0141916
0.0131418
0.0118099
0.0102884
0.00871754
0.00724656
0.00598884
0.00498369
0.00421053
0.00363402
0.00322371
0.00294931
0.00277995
0.00268986
0.00266222
0.00268783
0.00275937
0.00286194
0.00296601
0.00304306
0.00310227
0.00280778
0.00154251
0.00361055
0.01233
0.01395
0.013957
0.0135538
0.0131313
0.0127706
0.0124652
0.0121949
0.0119503
0.011708
0.0114485
0.0111461
0.0107471
0.0101829
0.00940653
0.00843305
0.00735268
0.00630375
0.00540859
0.00472086
0.00422485
0.00387158
0.00361356
0.00341863
0.00326842
0.00315413
0.00307378
0.00302985
0.00302631
0.00306551
0.00314457
0.00325069
0.00336853
0.0035199
0.00376307
0.00252067
0.00161048
0.00260949
0.00275123
0.00286641
0.00270394
0.00249546
0.00236519
0.0022528
0.0021468
0.00204431
0.00194846
0.00186316
0.00178848
0.00172121
0.00165687
0.00159076
0.00151894
0.00143986
0.00135594
0.00127367
0.00120075
0.00114259
0.00110074
0.00107363
0.00105852
0.00105298
0.00105553
0.00106557
0.00108305
0.00110823
0.00114155
0.00118359
0.00123516
0.00129741
0.00137169
0.00145865
0.00156298
0.00161226
0.001489
0.00137643
0.00149675
)
;

boundaryField
{
    floor
    {
        type            compressible::alphatWallFunction;
        Prt             0.85;
        value           nonuniform List<scalar> 
29
(
0.000200234
0.000121383
0.000142921
0.000167653
0.000181619
0.000182886
0.000178359
0.000167614
0.000156044
0.000145504
0.000136216
0.000128055
0.000120866
0.000114471
0.000108741
0.000103484
9.84284e-05
9.31706e-05
8.77363e-05
7.86948e-05
7.86938e-05
9.0778e-05
9.85931e-05
0.000104344
0.000200232
0.000121382
0.000117692
0.000157523
0.000271663
)
;
    }
    ceiling
    {
        type            compressible::alphatWallFunction;
        Prt             0.85;
        value           nonuniform List<scalar> 
43
(
0.000355294
0.000373182
0.000387649
0.00036725
0.000340869
0.000324266
0.000309865
0.000296206
0.000282924
0.000270435
0.000259263
0.000249436
0.000240545
0.000232006
0.000223195
0.000213576
0.000202924
0.00019155
0.000180321
0.000170298
0.000162255
0.000156438
0.000152657
0.000150545
0.000149771
0.000150128
0.000151533
0.000153974
0.000157483
0.000162112
0.00016793
0.000175034
0.000183565
0.000193685
0.000205453
0.000219469
0.000226059
0.000209547
0.000194342
0.000210617
0.00046831
0.000476108
0.000479721
)
;
    }
    sWall
    {
        type            compressible::alphatWallFunction;
        Prt             0.85;
        value           uniform 0.000354087;
    }
    nWall
    {
        type            compressible::alphatWallFunction;
        Prt             0.85;
        value           nonuniform List<scalar> 6(0.00015197 0.000159543 0.000179818 0.000216365 0.000225456 0.000210247);
    }
    sideWalls
    {
        type            empty;
    }
    glass1
    {
        type            compressible::alphatWallFunction;
        Prt             0.85;
        value           nonuniform List<scalar> 9(0.000252147 0.000315085 0.000364761 0.000410919 0.000455348 0.000487129 0.000487556 0.00047389 0.000457774);
    }
    glass2
    {
        type            compressible::alphatWallFunction;
        Prt             0.85;
        value           nonuniform List<scalar> 2(0.000264063 0.000247887);
    }
    sun
    {
        type            compressible::alphatWallFunction;
        Prt             0.85;
        value           nonuniform List<scalar> 
14
(
0.000259115
0.000289038
0.000302212
0.000319562
0.000337377
0.000353276
0.000362177
0.000362852
0.000355349
0.000338891
0.000313007
0.000288281
0.000259138
0.000230824
)
;
    }
    heatsource1
    {
        type            compressible::alphatWallFunction;
        Prt             0.85;
        value           nonuniform List<scalar> 3(0.000115049 0.000136484 0.00015244);
    }
    heatsource2
    {
        type            compressible::alphatWallFunction;
        Prt             0.85;
        value           nonuniform List<scalar> 4(0.000244894 0.000199216 0.000199213 0.000240994);
    }
    Table_master
    {
        type            compressible::alphatWallFunction;
        Prt             0.85;
        value           nonuniform List<scalar> 9(0.000225819 0.000197111 0.000173594 0.000154506 0.000138949 0.000126162 0.000115567 0.000106972 0.000100597);
    }
    Table_slave
    {
        type            compressible::alphatWallFunction;
        Prt             0.85;
        value           nonuniform List<scalar> 9(0.000252206 0.000227445 0.000208148 0.000192424 0.000178589 0.000165642 0.000152906 0.000139798 0.000125296);
    }
    inlet
    {
        type            fixedValue;
        value           uniform 1.94e-05;
    }
    outlet
    {
        type            zeroGradient;
    }
}


// ************************************************************************* //
