/*--------------------------------*- C++ -*----------------------------------*\
  =========                 |
  \\      /  F ield         | OpenFOAM: The Open Source CFD Toolbox
   \\    /   O peration     | Website:  https://openfoam.org
    \\  /    A nd           | Version:  6
     \\/     M anipulation  |
\*---------------------------------------------------------------------------*/
FoamFile
{
    version     2.0;
    format      ascii;
    class       volScalarField;
    location    "200";
    object      nut;
}
// * * * * * * * * * * * * * * * * * * * * * * * * * * * * * * * * * * * * * //

dimensions      [0 2 -1 0 0 0 0];

internalField   nonuniform List<scalar> 
459
(
0.00158793
0.00178168
0.00186826
0.00198305
0.00210166
0.0022081
0.00226789
0.0022724
0.00222195
0.00211174
0.00193971
0.00177681
0.00158681
0.00140456
0.00121056
0.000728808
0.000858045
0.00100931
0.00109598
0.00110398
0.00107586
0.00100931
0.000938196
0.000873943
0.00081777
0.000768783
0.000725927
0.000688061
0.000654337
0.000623584
0.000594177
0.000563779
0.000532578
0.000481149
0.0020088
0.005728
0.00608097
0.00718431
0.00816761
0.0088546
0.0093792
0.00972002
0.00985082
0.00970856
0.00930336
0.00870284
0.00789069
0.00640357
0.00430449
0.0014929
0.00120215
0.000706962
0.00187579
0.00301351
0.00393285
0.0044592
0.00435523
0.0030234
0.00248612
0.00214176
0.00189458
0.00170775
0.00156152
0.00144525
0.00133915
0.00122459
0.0011126
0.00101181
0.00105072
0.000550217
0.00234766
0.00807695
0.0079644
0.00886519
0.00944255
0.00987866
0.0103411
0.0108199
0.0112177
0.0113753
0.0112776
0.0109504
0.0103783
0.00933143
0.00761238
0.00487323
0.00146795
0.000947122
0.00201394
0.00335572
0.00471683
0.00562041
0.00529916
0.00137374
0.00119164
0.00104475
0.000927231
0.000832702
0.000755937
0.000693026
0.000642487
0.000605323
0.000681908
0.000814292
0.00119016
0.000595495
0.00266715
0.0100172
0.00900851
0.009467
0.00946281
0.00953736
0.00989014
0.0104651
0.0110355
0.0114417
0.011598
0.0115004
0.0111725
0.0105484
0.00944896
0.00753706
0.00400437
0.001669
0.00211181
0.00328099
0.00490606
0.00641437
0.00732024
0.00668981
0.00154451
0.00138524
0.00126248
0.00116342
0.00107702
0.000996858
0.000918691
0.000839009
0.000751825
0.000696417
0.0007738
0.00134419
0.000629114
0.00297848
0.0120146
0.0108069
0.010412
0.00954119
0.0092376
0.00948568
0.0101141
0.0108366
0.0114042
0.0116851
0.0116739
0.0114369
0.0110283
0.0104133
0.0094228
0.00778181
0.00693812
0.00754713
0.00843117
0.00928789
0.00985878
0.0100042
0.00948593
0.00751322
0.0064404
0.00572242
0.00505196
0.00439352
0.00373154
0.00306086
0.00239026
0.00173989
0.00119436
0.00096874
0.00128138
0.000735556
0.000691725
0.000820467
0.000917577
0.00320381
0.0130908
0.0126584
0.0107224
0.00936224
0.00893472
0.00928858
0.010109
0.0110229
0.0117196
0.0120513
0.0120437
0.0118358
0.0116108
0.0114394
0.0112662
0.0110156
0.011197
0.0118366
0.0122809
0.0124283
0.0122624
0.0118053
0.0110477
0.00991486
0.00885412
0.00786361
0.00692525
0.00601445
0.00510905
0.00419505
0.00328584
0.00242326
0.00169221
0.00130582
0.00127695
0.000944725
0.0008543
0.00124818
0.00096391
0.00320854
0.0101127
0.00962684
0.00852809
0.00802199
0.0083357
0.00931682
0.0106133
0.0118073
0.0125867
0.0128745
0.0128157
0.012707
0.012788
0.0130445
0.0133414
0.0136185
0.0140001
0.0143242
0.0142475
0.0138367
0.0131663
0.0123135
0.0113243
0.0102292
0.00916033
0.00815625
0.00721592
0.00631843
0.00544312
0.00456167
0.00370204
0.00290195
0.00220132
0.00177532
0.0015617
0.00131534
0.00126868
0.00129162
0.00108959
0.00311076
0.00528906
0.00546573
0.00576535
0.00669579
0.00837787
0.0104141
0.0122544
0.013494
0.0139679
0.0139167
0.0138798
0.0141019
0.0143397
0.01461
0.0148399
0.0150043
0.0150807
0.0149276
0.0144088
0.0135818
0.0125557
0.0114257
0.0102513
0.00909526
0.00803721
0.00708101
0.00621277
0.00542614
0.004721
0.00409402
0.00354091
0.00304711
0.00258896
0.00228431
0.00226077
0.00240934
0.00297508
0.0041814
0.00164486
0.00298625
0.00301002
0.00469511
0.00624161
0.00963476
0.012686
0.0145181
0.0152711
0.0154534
0.0151053
0.0146554
0.0145278
0.0147134
0.0148783
0.0149436
0.0149117
0.0147651
0.0144347
0.0138326
0.0129289
0.0117869
0.0105069
0.0091833
0.00790386
0.00673405
0.00569175
0.00476619
0.00396537
0.00331687
0.00283697
0.00251251
0.00231206
0.00220649
0.00217938
0.00222021
0.00230595
0.00236319
0.0023248
0.00218105
0.00153948
0.00139078
0.00669191
0.0130808
0.0149616
0.0151447
0.0147661
0.0142948
0.0139552
0.0137734
0.013752
0.0137608
0.0136776
0.0134986
0.0132202
0.0127961
0.0121581
0.0112622
0.0101233
0.00882073
0.00747484
0.00621399
0.00513564
0.00427368
0.00361058
0.0031161
0.00276412
0.00252869
0.00238333
0.00230594
0.00228213
0.00230401
0.00236532
0.00245335
0.00254283
0.00260931
0.00266059
0.00240854
0.00132397
0.00307069
0.0104973
0.011901
0.0119222
0.0115862
0.0112306
0.0109262
0.0106682
0.0104399
0.010233
0.010028
0.00980802
0.00955132
0.00921164
0.00873014
0.00806628
0.0072328
0.00630702
0.0054077
0.00463997
0.00405
0.00362441
0.00332123
0.00309975
0.00293238
0.00280336
0.00270516
0.00263608
0.00259825
0.00259507
0.00262856
0.00269629
0.0027873
0.00288851
0.00301864
0.00322796
0.00216297
0.0013822
0.00222876
0.00234936
0.00244757
0.00231272
0.0021361
0.00202542
0.00192974
0.0018394
0.00175197
0.00167018
0.00159738
0.00153365
0.00147622
0.00142127
0.00136478
0.00130334
0.00123563
0.00116372
0.00109319
0.00103063
0.000980718
0.00094478
0.000921484
0.000908473
0.00090367
0.000905806
0.000914361
0.000929296
0.000950836
0.000979355
0.00101535
0.00105952
0.00111285
0.00117651
0.00125104
0.00134053
0.00138291
0.00127738
0.00118136
0.00128553
)
;

boundaryField
{
    floor
    {
        type            nutkWallFunction;
        Cmu             0.09;
        kappa           0.41;
        E               9.8;
        value           nonuniform List<scalar> 
29
(
0.000145161
8.8255e-05
0.000103865
0.000121792
0.000131924
0.000132857
0.000129584
0.000121798
0.000113412
0.000105771
9.9037e-05
9.31201e-05
8.7907e-05
8.32703e-05
7.91149e-05
7.53029e-05
7.16363e-05
6.78227e-05
6.38815e-05
5.73217e-05
5.73217e-05
6.61096e-05
7.17957e-05
7.59836e-05
0.000145161
8.8255e-05
8.55847e-05
0.000114454
0.000196906
)
;
    }
    ceiling
    {
        type            nutkWallFunction;
        Cmu             0.09;
        kappa           0.41;
        E               9.8;
        value           nonuniform List<scalar> 
43
(
0.000258066
0.000271004
0.00028149
0.000267105
0.000248109
0.000236119
0.000225697
0.0002158
0.000206169
0.000197109
0.000189004
0.000181874
0.000175421
0.000169222
0.000162819
0.000155824
0.00014807
0.000139785
0.0001316
0.00012429
0.000118423
0.000114177
0.000111415
0.00010987
0.000109299
0.000109554
0.000110573
0.000112347
0.000114899
0.000118268
0.000122503
0.000127677
0.00013389
0.000141263
0.000149838
0.000160058
0.000164874
0.000152856
0.000141827
0.0001538
0.000338108
0.000340365
0.00034699
)
;
    }
    sWall
    {
        type            nutkWallFunction;
        Cmu             0.09;
        kappa           0.41;
        E               9.8;
        value           uniform 0.000258133;
    }
    nWall
    {
        type            nutkWallFunction;
        Cmu             0.09;
        kappa           0.41;
        E               9.8;
        value           nonuniform List<scalar> 6(0.000110968 0.000116455 0.000131189 0.00015819 0.000164815 0.000153812);
    }
    sideWalls
    {
        type            empty;
    }
    glass1
    {
        type            nutkWallFunction;
        Cmu             0.09;
        kappa           0.41;
        E               9.8;
        value           nonuniform List<scalar> 9(0.000188198 0.000234667 0.000271308 0.000305342 0.000338096 0.000361576 0.000362076 0.000351879 0.000338762);
    }
    glass2
    {
        type            nutkWallFunction;
        Cmu             0.09;
        kappa           0.41;
        E               9.8;
        value           nonuniform List<scalar> 2(0.000194396 0.000182625);
    }
    sun
    {
        type            nutkWallFunction;
        Cmu             0.09;
        kappa           0.41;
        E               9.8;
        value           nonuniform List<scalar> 
14
(
0.000187894
0.000209367
0.000218882
0.000231427
0.000244307
0.0002558
0.000262231
0.000262716
0.000257293
0.000245403
0.000226701
0.000208829
0.000187757
0.000167281
)
;
    }
    heatsource1
    {
        type            nutkWallFunction;
        Cmu             0.09;
        kappa           0.41;
        E               9.8;
        value           nonuniform List<scalar> 3(8.37135e-05 9.93553e-05 0.000110962);
    }
    heatsource2
    {
        type            nutkWallFunction;
        Cmu             0.09;
        kappa           0.41;
        E               9.8;
        value           nonuniform List<scalar> 4(0.000177227 0.000144184 0.000144184 0.000174423);
    }
    Table_master
    {
        type            nutkWallFunction;
        Cmu             0.09;
        kappa           0.41;
        E               9.8;
        value           nonuniform List<scalar> 9(0.000163807 0.000142995 0.000125946 0.000112108 0.00010083 9.15611e-05 8.38817e-05 7.7652e-05 7.30332e-05);
    }
    Table_slave
    {
        type            nutkWallFunction;
        Cmu             0.09;
        kappa           0.41;
        E               9.8;
        value           nonuniform List<scalar> 9(0.000183054 0.000165119 0.000151139 0.000139746 0.00012972 0.000120335 0.0001111 0.000101591 9.10636e-05);
    }
    inlet
    {
        type            calculated;
        value           uniform 0.000100623;
    }
    outlet
    {
        type            calculated;
        value           nonuniform List<scalar> 2(0.00222876 0.00234936);
    }
}


// ************************************************************************* //
