/*--------------------------------*- C++ -*----------------------------------*\
  =========                 |
  \\      /  F ield         | OpenFOAM: The Open Source CFD Toolbox
   \\    /   O peration     | Website:  https://openfoam.org
    \\  /    A nd           | Version:  6
     \\/     M anipulation  |
\*---------------------------------------------------------------------------*/
FoamFile
{
    version     2.0;
    format      ascii;
    class       surfaceScalarField;
    location    "200";
    object      phi;
}
// * * * * * * * * * * * * * * * * * * * * * * * * * * * * * * * * * * * * * //

dimensions      [1 0 -1 0 0 0 0];

internalField   nonuniform List<scalar> 
852
(
-0.00371231
0.00377805
-0.00539446
0.00168202
-0.00635106
0.000956467
-0.00669461
0.000343406
-0.00638822
-0.000306536
-0.00546138
-0.000926991
-0.00409609
-0.00136546
-0.00254392
-0.00155234
-0.00102483
-0.00151925
0.000289912
-0.00131491
0.00124453
-0.000954787
0.00180171
-0.000557339
0.00191842
-0.00011686
0.00147419
0.000444074
0.00147794
-0.00131706
0.0013217
-0.0011749
-0.000142396
-0.000314436
-0.000860686
0.000627154
-0.000941799
0.00138971
-0.000762761
0.00193877
-0.000549272
0.00225396
-0.000315399
0.00240613
-0.000152388
0.00249493
-8.90151e-05
0.00255624
-6.15242e-05
0.00259873
-4.27149e-05
0.00262598
-2.7473e-05
0.00263515
-9.40197e-06
0.00261084
2.40795e-05
0.00251479
9.58144e-05
0.00228133
0.000233217
0.00186783
0.000413253
0.00124484
0.000622736
0.00125047
-0.00264189
0.00659865
-0.00408684
0.00312685
-0.00498078
0.00185027
-0.00529622
0.000658712
-0.0049639
-0.000639011
-0.00407893
-0.00181212
-0.00287551
-0.00256906
-0.00159727
-0.00283077
-0.000410237
-0.00270648
0.000569082
-0.00229442
0.00131073
-0.00169662
0.00179299
-0.00103977
0.00202984
-0.00035388
0.00209462
0.000379134
0.00249214
0.00108027
0.00128791
0.00120403
0.0012877
-8.66544e-05
0.00142296
0.000504993
-0.00073428
0.00109561
-0.00145152
0.00158024
-0.00142663
0.00199057
-0.00117328
0.00228468
-0.000843585
0.00235249
-0.00038341
0.00236662
-0.000166719
0.00238178
-0.000104384
0.00239447
-7.44278e-05
0.0024031
-5.15642e-05
0.00240871
-3.32975e-05
0.0024101
-1.10224e-05
0.00239993
3.40219e-05
0.00233429
0.000161222
0.00206207
0.000505194
0.00159964
0.000875439
0.000992499
0.00122962
0.00225886
-0.00182685
0.00870107
-0.00296167
0.00426155
-0.00365918
0.00254766
-0.00383176
0.000831152
-0.00333649
-0.00113442
-0.0024087
-0.00274007
-0.00133535
-0.0036426
-0.000317295
-0.00384905
0.000540521
-0.00356451
0.00120732
-0.00296143
0.00170972
-0.00219922
0.00205307
-0.00138332
0.00226117
-0.00056216
0.00238565
0.000254475
0.00242541
0.00104034
0.00188731
0.00174197
0.00317486
0.0018621
-0.000418704
0.00232971
-0.00120211
0.00238821
-0.00151021
0.00245934
-0.00149795
0.00256494
-0.00127907
0.00274729
-0.00102612
0.00236384
0.00219708
0.00209265
0.00201817
0.00196655
0.0019332
0.00192211
0.00195605
0.0021172
0.00171775
0.000904398
0.00127035
0.00132259
0.000736553
0.00176316
0.00302055
-0.00127113
0.0103317
-0.0020548
0.00504511
-0.00232759
0.00282034
-0.00209605
0.0005995
-0.0012557
-0.00197487
-0.000294856
-0.00370107
0.000559675
-0.00449734
0.0012269
-0.00451651
0.00171303
-0.00405089
0.00205625
-0.00330487
0.00228684
-0.00243003
0.00243169
-0.00152838
0.00252686
-0.000657526
0.00262108
0.000160074
0.00276614
0.000895112
0.00306222
0.00144571
0.00451355
0.00172337
0.00393556
0.000595628
0.00376755
-0.000250855
0.00347684
-0.00091156
0.00316544
-0.00119898
0.00289464
-0.00122732
0.00268514
-0.00106974
0.00242693
-0.000768093
0.00270602
-0.000279433
0.00278088
-7.52026e-05
0.00277193
8.59588e-06
0.0027064
6.51802e-05
0.00258691
0.000119127
0.00240723
0.00017932
0.00215012
0.000256746
0.00178156
0.0003682
0.00122778
0.000553401
0.00111083
0.00102111
0.000813179
0.00161999
0.000403277
0.0021728
0.00345756
-0.00093173
0.0116962
-0.00131752
0.00543079
-0.000799165
0.00230189
0.000268056
-0.000467783
0.00138991
-0.00309678
0.00217781
-0.00448911
0.00264877
-0.00496854
0.00288902
-0.00475703
0.0029523
-0.00411444
0.00290094
-0.00325376
0.00279248
-0.00232181
0.00267351
-0.00140963
0.00258615
-0.00057038
0.00257769
0.000168347
0.00271249
0.000760131
0.00303395
0.00112408
0.00357372
0.00118343
0.00358997
0.000579221
0.00347299
-0.000134044
0.00317757
-0.000616301
0.00282529
-0.000846871
0.00247837
-0.00088057
0.00217247
-0.000764029
0.00193462
-0.000530433
0.0018822
-0.000227206
0.00182886
-2.20733e-05
0.00175186
8.53976e-05
0.0016682
0.00014862
0.00157891
0.000208205
0.00147341
0.000284606
0.00133641
0.000393519
0.00115332
0.000551073
0.000936798
0.000769692
0.000805096
0.00115258
0.000711981
0.00171285
0.000420999
0.00246352
0.000563211
0.00331508
-0.00124525
0.00180799
-0.00174817
0.000502436
-0.00168455
-0.000589351
0.0127877
-7.314e-05
0.0049145
0.00184539
0.000383334
0.00354081
-0.00216314
0.00445604
-0.00401202
0.00484217
-0.0048754
0.00479545
-0.00492209
0.00446311
-0.004425
0.00397325
-0.00362486
0.00343275
-0.00271352
0.00292086
-0.00181015
0.00248913
-0.000978113
0.00216592
-0.000247372
0.00199595
0.000338112
0.00201564
0.000740248
0.00220285
0.000936696
0.00250275
0.000883361
0.00261076
0.000471036
0.00247835
-1.79885e-06
0.00220394
-0.000342063
0.00187362
-0.00051674
0.0015389
-0.000546037
0.0012366
-0.00046193
0.00100015
-0.000294189
0.000863709
-9.09731e-05
0.000786135
5.52849e-05
0.000739091
0.000132221
0.000710881
0.000176606
0.000696656
0.000222204
0.000691062
0.000289969
0.000688008
0.000396339
0.000685194
0.000553651
0.000686308
0.000768341
0.000758686
0.00107996
0.000974961
0.00149632
0.00130564
0.00213258
0.00201783
0.00260262
0.00239574
0.0014298
0.00200129
0.000896609
0.000393503
0.00341554
0.00995263
0.00506796
0.00326204
0.00661244
-0.00116095
0.00775784
-0.00330826
0.00800533
-0.00425947
0.00751557
-0.00438586
0.00658025
-0.00398714
0.00544434
-0.00328947
0.00427556
-0.00245639
0.00320017
-0.00163837
0.00228952
-0.000899708
0.00156644
-0.000255237
0.00107273
0.000246143
0.000844898
0.000565743
0.000845223
0.000739727
0.000992356
0.000789375
0.00118781
0.000687724
0.0012502
0.000408466
0.00114413
0.000104079
0.000924663
-0.00012279
0.000646284
-0.000238563
0.000356555
-0.000256518
9.48766e-05
-0.000200468
-0.000103088
-9.64468e-05
-0.00021122
1.69316e-05
-0.000245746
8.95806e-05
-0.000234912
0.000121154
-0.000194882
0.00013634
-0.000128418
0.000155502
-3.33917e-05
0.000194701
9.33966e-05
0.000269307
0.000255105
0.000391697
0.000453048
0.000570152
0.00072179
0.000810966
0.00113022
0.00108765
0.00174701
0.00151553
0.00271038
0.00163899
0.00344887
0.00069104
0.00363569
0.000709519
0.00411338
0.0135376
-0.00289006
0.0162851
0.000516176
0.0145267
0.000598843
0.012849
-0.00162979
0.0109455
-0.00235595
0.00883208
-0.00227294
0.0066985
-0.00185413
0.0047261
-0.00131752
0.00299991
-0.000730523
0.0015774
-0.000216065
0.000491735
0.000185769
-0.000208009
0.000444322
-0.000534229
0.000572156
-0.000607008
0.000638313
-0.000535511
0.000668024
-0.000391494
0.000645154
-0.000252529
0.000548557
-0.000217889
0.000373619
-0.000302753
0.000188731
-0.000474787
4.90249e-05
-0.000689975
-2.36009e-05
-0.00090722
-3.95037e-05
-0.00109133
-1.65885e-05
-0.00121359
2.55667e-05
-0.00125943
6.25335e-05
-0.00124688
7.67879e-05
-0.00119833
7.23599e-05
-0.00112179
5.95531e-05
-0.00101648
4.99432e-05
-0.000877823
5.57933e-05
-0.000698261
8.94929e-05
-0.000468222
0.000161405
-0.000177844
0.000279521
0.000178868
0.000453999
0.000598071
0.00066819
0.00118149
0.000931858
0.0018623
0.000957915
0.00195704
0.000596048
0.00074454
0.00192175
0.0052204
-0.0019047
-0.00133434
0.00335882
-0.00409218
0.00449098
-0.00276325
0.00380623
-0.00167341
0.00264224
-0.0011107
0.00135316
-0.00056614
0.000104426
-6.94081e-05
-0.000923159
0.000296694
-0.00160004
0.000460572
-0.00195874
0.00054428
-0.00209915
0.000584526
-0.00211352
0.000586311
-0.00204626
0.000570831
-0.00192734
0.000548884
-0.00179364
0.000511225
-0.00169049
0.000445187
-0.00166584
0.000348735
-0.00172563
0.000248278
-0.00184497
0.000168128
-0.00198708
0.000118261
-0.00212152
9.4688e-05
-0.00222614
8.7779e-05
-0.00228886
8.80341e-05
-0.00231509
8.85192e-05
-0.00232436
8.57966e-05
-0.00233517
8.29156e-05
-0.00236201
8.61424e-05
-0.00241635
0.000104022
-0.00250901
0.000148196
-0.00265396
0.000234183
-0.00287492
0.000382106
-0.00321386
0.000618206
-0.00373338
0.000973263
-0.00453247
0.00146703
-0.0056697
0.00206884
-0.00727548
0.00256344
-0.00931216
0.00263248
-0.00890578
0.00151512
-0.00329738
0.00278813
-0.000332776
0.00028999
-0.000267959
-0.00124464
-0.000141562
-0.0023477
-8.77544e-06
-0.00310842
0.000193961
-0.00354604
0.000367829
-0.00372704
0.000477449
-0.00378206
0.000515367
-0.00374814
0.000510144
-0.00365021
0.00048638
-0.0035195
0.000455368
-0.00337494
0.000426028
-0.00322725
0.000400959
-0.00309091
0.000374639
-0.00298558
0.000339607
-0.00293078
0.000293671
-0.00292855
0.000245793
-0.00296624
0.000205564
-0.00302495
0.000176704
-0.00308732
0.000156801
-0.00314156
0.000141762
-0.0031828
0.000129014
-0.00321229
0.000117748
-0.00323503
0.000108269
-0.00325528
0.0001029
-0.00327569
0.000106292
-0.00329804
0.000126101
-0.00332369
0.000173579
-0.00335375
0.000263982
-0.00338971
0.0004178
-0.00343547
0.000663706
-0.00349819
0.00103573
-0.00357253
0.00154112
-0.00358149
0.00207754
-0.00338088
0.00236257
-0.00219425
0.00144559
6.19247e-05
-0.000741311
-0.00314445
-0.00407701
0.00377053
-0.00507915
0.00073323
-0.00548164
0.000260096
-0.00571172
0.00022079
-0.00576932
0.000251212
-0.0056953
0.000293527
-0.00553426
0.000316168
-0.0053331
0.000313969
-0.00512016
0.000296968
-0.00490958
0.000275557
-0.00471043
0.000255962
-0.00452606
0.000241403
-0.00435665
0.00023128
-0.004204
0.00022173
-0.00407271
0.000208044
-0.00396723
0.000187916
-0.00388534
0.000163633
-0.0038191
0.00013905
-0.00375935
0.000116678
-0.00369967
9.68543e-05
-0.00363729
7.91043e-05
-0.00357197
6.34238e-05
-0.003505
5.05092e-05
-0.00343852
4.1508e-05
-0.003374
3.81115e-05
-0.00331102
4.30362e-05
-0.00324581
6.06258e-05
-0.00316966
9.7156e-05
-0.00306696
0.000161011
-0.00291325
0.000263818
-0.00267465
0.000424846
-0.00231579
0.000676599
-0.0018243
0.00104937
-0.00116492
0.00141789
-1.16037e-05
0.001209
0.00187861
-0.000444884
0.00362908
-0.00249205
0.000582632
-0.00934053
-0.0127973
-0.00900183
-0.00824742
-0.00796727
-0.00772692
-0.00745639
-0.00714368
-0.00680845
-0.00647554
-0.00615979
-0.00586566
-0.00559136
-0.00533183
-0.00508258
-0.00484291
-0.00461679
-0.00441046
-0.00422788
-0.00406922
-0.00393223
-0.00381439
-0.0037137
-0.00362817
-0.0035551
-0.00349068
-0.00342939
-0.003363
-0.00327897
-0.00315847
-0.00297431
-0.00268766
-0.00224046
-0.00154212
-0.000471792
0.000965993
0.002194
0.00176853
-0.000705443
)
;

boundaryField
{
    floor
    {
        type            calculated;
        value           nonuniform List<scalar> 
29
(
0
0
0
0
0
0
0
0
0
0
0
0
0
0
0
0
0
0
0
0
-5.89215e-06
-1.61503e-05
-2.54007e-05
-3.40064e-05
-3.90283e-06
-4.87793e-06
-1.48582e-05
-2.06789e-05
-1.77959e-05
)
;
    }
    ceiling
    {
        type            calculated;
        value           nonuniform List<scalar> 
43
(
-2.69265e-05
-2.6243e-05
-2.55473e-05
-2.1667e-05
-2.04409e-05
-1.98812e-05
-1.96048e-05
-1.94432e-05
-1.93286e-05
-1.92097e-05
-1.90502e-05
-1.88454e-05
-1.86176e-05
-1.84049e-05
-1.82551e-05
-1.82226e-05
-1.83601e-05
-1.87002e-05
-1.92315e-05
-1.98923e-05
-2.05958e-05
-2.12688e-05
-2.1872e-05
-2.23944e-05
-2.28357e-05
-2.31939e-05
-2.34619e-05
-2.36291e-05
-2.36848e-05
-2.36199e-05
-2.34269e-05
-2.30992e-05
-2.26293e-05
-2.20094e-05
-2.12344e-05
-2.01604e-05
-1.9278e-05
-1.96822e-05
-1.83606e-05
-1.37412e-05
-2.74721e-05
-4.73436e-05
-2.7141e-05
)
;
    }
    sWall
    {
        type            calculated;
        value           uniform -0.000213751;
    }
    nWall
    {
        type            calculated;
        value           nonuniform List<scalar> 6(-6.411e-05 -7.70404e-05 -8.44641e-05 -9.12947e-05 -9.82694e-05 -0.000109352);
    }
    sideWalls
    {
        type            empty;
        value           nonuniform 0();
    }
    glass1
    {
        type            calculated;
        value           nonuniform List<scalar> 9(-6.58618e-05 -0.000178833 -0.000275684 -0.000359627 -0.000432839 -0.000502288 -0.000580519 -0.000692916 -0.000951448);
    }
    glass2
    {
        type            calculated;
        value           nonuniform List<scalar> 2(-0.000362737 -0.000388254);
    }
    sun
    {
        type            calculated;
        value           uniform 0;
    }
    heatsource1
    {
        type            calculated;
        value           nonuniform List<scalar> 3(2.06448e-07 2.06261e-07 2.06327e-07);
    }
    heatsource2
    {
        type            calculated;
        value           nonuniform List<scalar> 4(5.20319e-08 5.22129e-08 0 0);
    }
    Table_master
    {
        type            calculated;
        value           nonuniform List<scalar> 9(-1.55302e-07 -1.55503e-07 -1.55552e-07 -1.55573e-07 -1.55579e-07 -1.55573e-07 -1.55557e-07 -1.55521e-07 -1.55436e-07);
    }
    Table_slave
    {
        type            calculated;
        value           nonuniform List<scalar> 9(1.55009e-07 1.55046e-07 1.55014e-07 1.54984e-07 1.54976e-07 1.54987e-07 1.55021e-07 1.55081e-07 1.55183e-07);
    }
    inlet
    {
        type            calculated;
        value           uniform -0.00654835;
    }
    outlet
    {
        type            calculated;
        value           nonuniform List<scalar> 2(0.00958063 0.00348242);
    }
}


// ************************************************************************* //
