/*--------------------------------*- C++ -*----------------------------------*\
  =========                 |
  \\      /  F ield         | OpenFOAM: The Open Source CFD Toolbox
   \\    /   O peration     | Website:  https://openfoam.org
    \\  /    A nd           | Version:  6
     \\/     M anipulation  |
\*---------------------------------------------------------------------------*/
FoamFile
{
    version     2.0;
    format      ascii;
    class       surfaceScalarField;
    location    "2000";
    object      phi;
}
// * * * * * * * * * * * * * * * * * * * * * * * * * * * * * * * * * * * * * //

dimensions      [1 0 -1 0 0 0 0];

internalField   nonuniform List<scalar> 
852
(
-0.00304252
0.00310232
-0.00412627
0.00108375
-0.00493034
0.000804066
-0.00554278
0.000612439
-0.00593177
0.000388982
-0.0060734
0.00014163
-0.00594661
-0.000126787
-0.00554142
-0.000405198
-0.00488502
-0.000656394
-0.00404389
-0.00084113
-0.00310956
-0.000934336
-0.0021789
-0.00093066
-0.00133798
-0.000840923
-0.000627691
-0.00071029
-0.000625626
-0.000809904
0.000813589
-0.000470302
-0.000339604
0.000206492
-0.000676795
0.000746144
-0.000539654
0.00110957
-0.000363427
0.00133848
-0.000228912
0.00146313
-0.000124655
0.00152394
-6.08096e-05
0.00155772
-3.37778e-05
0.00157821
-2.04967e-05
0.00158954
-1.1325e-05
0.00159313
-3.59284e-06
0.00158716
5.9716e-06
0.0015629
2.42543e-05
0.00149682
6.60789e-05
0.00134948
0.000147334
0.00110783
0.000241656
0.000809063
0.000298761
0.000814042
-0.00216583
0.0054288
-0.00321286
0.00213078
-0.004035
0.00162621
-0.00463622
0.00121366
-0.00501811
0.000770861
-0.00516527
0.000288798
-0.00505413
-0.000237936
-0.00468137
-0.000777952
-0.0040865
-0.00125126
-0.00334237
-0.00158526
-0.002536
-0.00174071
-0.00174781
-0.00171885
-0.00104944
-0.00153929
-0.000516068
-0.00124366
-0.000285935
-0.00085576
6.10662e-05
-0.000347054
6.1013e-05
0.000372487
0.000451716
0.000813493
-0.000780611
0.00108695
-0.000950258
0.00132305
-0.000775747
0.00150458
-0.000544962
0.00161485
-0.000339183
0.00163292
-0.000142724
0.00163734
-6.52322e-05
0.0016427
-3.91452e-05
0.00164718
-2.49723e-05
0.0016501
-1.42446e-05
0.00165149
-4.99194e-06
0.0016505
6.96682e-06
0.0016433
3.14523e-05
0.00159927
0.000110108
0.0014118
0.000334797
0.00109134
0.000562113
0.000694464
0.000695637
0.00152115
-0.00151131
0.00718558
-0.00241042
0.00302988
-0.00313452
0.00235031
-0.00364425
0.00172338
-0.00397037
0.00109699
-0.00409151
0.000409932
-0.0039639
-0.000365544
-0.00358833
-0.00115353
-0.00302806
-0.00181154
-0.00236488
-0.00224845
-0.00167832
-0.00242727
-0.00102575
-0.00237143
-0.000454247
-0.0021108
1.48005e-06
-0.00169939
0.000302912
-0.00115719
0.000453141
-0.000497284
0.000514152
0.00161514
-0.0011521
0.00184708
-0.00101255
0.0018054
-0.000908582
0.00179712
-0.000767465
0.00182229
-0.000570137
0.0018483
-0.000365197
0.00170573
0.00164065
0.00160166
0.00157684
0.00156274
0.0015579
0.00156502
0.00159663
0.00170689
0.00139898
0.000642704
0.00103143
0.00092966
0.000583916
0.00114315
0.00212418
-0.00105042
0.00855368
-0.00175893
0.0037384
-0.00223037
0.00282175
-0.0025542
0.00204721
-0.00275032
0.00129311
-0.00277629
0.000435895
-0.00256771
-0.000574128
-0.0021585
-0.00156273
-0.00164193
-0.00232811
-0.00109475
-0.00279563
-0.000573659
-0.00294836
-0.000103089
-0.002842
0.000303594
-0.00251748
0.000645507
-0.00204131
0.000959236
-0.00147092
0.00133122
-0.000869273
0.00219979
-0.000354412
0.00264755
-0.000437534
0.00222041
-0.000724966
0.00207456
-0.000866706
0.00194817
-0.00078219
0.0018401
-0.000659397
0.00178014
-0.000510176
0.00174916
-0.000334215
0.00189263
-0.000143627
0.00198273
-9.02511e-05
0.00205337
-7.07984e-05
0.00210442
-5.12088e-05
0.00211979
-1.55252e-05
0.0020773
4.23381e-05
0.00195214
0.000125001
0.00171167
0.000240318
0.00129898
0.000412536
0.00114729
0.000794389
0.000822185
0.00125477
0.000331287
0.00163405
0.00248044
-0.000732232
0.00966495
-0.00126615
0.00427231
-0.00134942
0.00290502
-0.00138468
0.00208247
-0.00136423
0.00127265
-0.00117673
0.000248393
-0.000803652
-0.000947204
-0.000363661
-0.00200273
5.59805e-05
-0.00274775
0.000411319
-0.00315097
0.000692408
-0.00322945
0.000905093
-0.00305469
0.00107269
-0.00268508
0.00121997
-0.00218859
0.00138054
-0.00163149
0.00160104
-0.00108978
0.00192212
-0.000675489
0.00204035
-0.00055577
0.00193995
-0.000624561
0.00174752
-0.00067428
0.00158404
-0.000618712
0.00145007
-0.000525426
0.00135837
-0.000418481
0.00132408
-0.000299922
0.00137634
-0.000195894
0.00143643
-0.000150344
0.00149938
-0.000133751
0.00156019
-0.000112018
0.00160596
-6.12965e-05
0.00161539
3.29047e-05
0.00156832
0.000172074
0.00145397
0.00035467
0.00127475
0.000591756
0.00111522
0.000953916
0.000939634
0.00143035
0.000540013
0.00203367
0.00041687
0.00260358
-0.00111419
0.00153085
-0.00157775
0.000463355
-0.00152375
-0.000634986
0.0107308
-0.000992927
0.00463025
-0.000532675
0.00244477
-9.53633e-05
0.00164515
0.000301053
0.000876237
0.000817362
-0.000267917
0.00134238
-0.00147223
0.00172437
-0.00238472
0.0019421
-0.00296548
0.00201806
-0.00322693
0.00199326
-0.00320465
0.00189765
-0.00295908
0.00176935
-0.00255678
0.00164536
-0.0020646
0.0015568
-0.00154293
0.00152499
-0.00105797
0.00153921
-0.000689713
0.00149509
-0.000511651
0.00135214
-0.000481607
0.00115492
-0.000477063
0.000978825
-0.000442618
0.000843158
-0.00038976
0.000755886
-0.000331211
0.000727089
-0.000271127
0.000756106
-0.000224912
0.000815272
-0.000209511
0.00089046
-0.000208939
0.00097527
-0.00019683
0.00106262
-0.000148647
0.00113617
-4.06478e-05
0.00117749
0.000130757
0.00118774
0.000344417
0.00117505
0.000604445
0.00118935
0.000939612
0.00128405
0.00133565
0.00146673
0.00185099
0.0019597
0.00211061
0.00224136
0.00124919
0.00185145
0.00085327
0.000392372
-0.000661208
0.0118701
-0.00051209
0.00448113
0.000723261
0.00120941
0.00165063
0.000717782
0.00251296
1.39089e-05
0.00330706
-0.00106203
0.00378971
-0.00195487
0.00396186
-0.00255688
0.00387135
-0.00287497
0.00358365
-0.00293923
0.00317057
-0.00279156
0.00269587
-0.00248438
0.00221743
-0.00207835
0.00178239
-0.00162956
0.00141947
-0.00118001
0.00114195
-0.000780455
0.000941034
-0.0004888
0.000767388
-0.000338005
0.000582981
-0.000297202
0.00039905
-0.000293133
0.000243352
-0.00028692
0.000128876
-0.000275285
6.00722e-05
-0.000262408
4.04606e-05
-0.000251516
6.54012e-05
-0.000249854
0.00011873
-0.00026284
0.000189283
-0.000279493
0.000275314
-0.000282862
0.000380985
-0.000254319
0.000510869
-0.000170533
0.000644802
-3.17713e-06
0.000773343
0.000215875
0.000914337
0.00046345
0.00110707
0.000746877
0.00140474
0.00103798
0.00188182
0.00137391
0.00262173
0.00137069
0.00321947
0.000651444
0.00328294
0.000789806
0.00374457
0.00277457
0.00963097
0.00355766
0.00369804
0.00418877
0.000578305
0.00520659
-0.000300039
0.0061344
-0.000913905
0.00658668
-0.0015143
0.00659486
-0.00196306
0.00623263
-0.00219464
0.00559048
-0.00223282
0.00476908
-0.00211784
0.00386747
-0.00188996
0.00296809
-0.00158499
0.00213759
-0.00124786
0.0014226
-0.000914571
0.000841787
-0.000599192
0.000404332
-0.000343001
0.000100683
-0.000185152
-0.000113242
-0.00012408
-0.00028329
-0.000127156
-0.000426139
-0.000150285
-0.000540786
-0.000172274
-0.000624988
-0.000191084
-0.000678689
-0.000208709
-0.000702802
-0.000227404
-0.000702475
-0.000250182
-0.00068791
-0.000277407
-0.000665176
-0.000302228
-0.000632969
-0.00031507
-0.000581585
-0.000305705
-0.000490185
-0.000261934
-0.000328031
-0.000165332
-0.000125088
1.29306e-05
0.000102752
0.000235609
0.000385179
0.000464447
0.000728758
0.000694399
0.00118503
0.000917638
0.00166801
0.000887721
0.00180399
0.000515459
0.000971799
0.001622
0.00500953
0.0102242
0.0139183
0.0129824
0.00151421
0.0123598
0.00032255
0.0115971
-0.000151167
0.0105466
-0.000463834
0.00922816
-0.000644598
0.00775504
-0.000721513
0.00622927
-0.000707056
0.00473877
-0.000627334
0.00336257
-0.000513766
0.00214982
-0.000372243
0.00113391
-0.000231948
0.000323248
-0.000103911
-0.000273525
-2.42031e-06
-0.000657254
4.07268e-05
-0.000881837
3.94302e-05
-0.0010239
1.79852e-05
-0.00113512
-1.59389e-05
-0.00123231
-5.30954e-05
-0.00131727
-8.73219e-05
-0.00139005
-0.000118304
-0.00145237
-0.000146382
-0.00150746
-0.000172317
-0.00156112
-0.000196524
-0.00162159
-0.000216943
-0.00169646
-0.000227354
-0.00179322
-0.000218317
-0.00192117
-0.00017775
-0.00209254
-9.05676e-05
-0.00231414
5.62665e-05
-0.00257216
0.000270953
-0.00290911
0.00057256
-0.00342508
0.000980413
-0.00421751
0.00148682
-0.0053417
0.00204183
-0.00690569
0.00245171
-0.00875957
0.00236934
-0.00813171
0.000994136
-0.00279653
0.00437614
0.00337523
0.00335639
0.0013423
0.00364166
-0.000436433
0.00357283
-0.000395008
0.00310819
-0.000179961
0.00241594
-2.92572e-05
0.00160919
9.9693e-05
0.000782413
0.000199439
1.15882e-05
0.000257059
-0.000632213
0.000271558
-0.00111128
0.00024712
-0.00143435
0.000219156
-0.0016224
0.000185625
-0.00172582
0.000144147
-0.0017905
0.000104114
-0.00184143
6.89156e-05
-0.00189463
3.72608e-05
-0.00195632
8.59431e-06
-0.00202481
-1.88422e-05
-0.0020965
-4.66126e-05
-0.00217282
-7.00575e-05
-0.00225664
-8.85034e-05
-0.00235148
-0.000101679
-0.00246033
-0.000108097
-0.00258356
-0.00010413
-0.00271785
-8.40201e-05
-0.00285462
-4.09791e-05
-0.00297916
3.39671e-05
-0.00308355
0.000160652
-0.00317217
0.000359575
-0.00325551
0.000655896
-0.0033454
0.0010703
-0.0034456
0.00158702
-0.00349718
0.00209341
-0.00340907
0.0023636
-0.00298308
0.00194334
-0.00165524
-0.000333704
-0.004367
-0.000793904
0.00425349
-0.000356116
0.000904512
-0.0010384
0.000245849
-0.00156216
0.000128754
-0.00191789
0.000175772
-0.0021811
0.000233951
-0.00236649
0.000285082
-0.00249377
0.000326711
-0.00257521
0.000338505
-0.00261694
0.000313287
-0.00263179
0.000261967
-0.00261908
0.000206449
-0.00258757
0.000154108
-0.00255208
0.000108655
-0.00252185
7.38811e-05
-0.00250151
4.85789e-05
-0.00249362
2.93658e-05
-0.00249847
1.34473e-05
-0.00251447
-2.84262e-06
-0.0025414
-1.96825e-05
-0.00257843
-3.30357e-05
-0.00262472
-4.22104e-05
-0.00267927
-4.71344e-05
-0.00274029
-4.70746e-05
-0.00280422
-4.01957e-05
-0.00286489
-2.33509e-05
-0.00291352
7.64725e-06
-0.00293496
5.54024e-05
-0.00290628
0.000131968
-0.00280046
0.000253758
-0.00258214
0.000437575
-0.00222261
0.000710773
-0.00172442
0.00108883
-0.001071
0.00143999
-4.1616e-05
0.00133421
0.00127657
0.000625158
0.00159401
-0.000651146
-0.00267969
-0.00789313
-0.0111525
-0.00684387
-0.00591131
-0.00564634
-0.00550222
-0.00531342
-0.00506807
-0.00477273
-0.0044365
-0.00408887
-0.00376654
-0.00349538
-0.00327947
-0.00311561
-0.00299692
-0.00291273
-0.00285362
-0.00281353
-0.00278923
-0.00278116
-0.00278994
-0.00281213
-0.00284359
-0.00288013
-0.00291678
-0.00294675
-0.00296012
-0.00294276
-0.00287795
-0.00273689
-0.0024744
-0.00202847
-0.00130975
-0.000213406
0.00123346
0.00257424
0.00320594
0.00256159
)
;

boundaryField
{
    floor
    {
        type            calculated;
        value           nonuniform List<scalar> 
29
(
0
0
0
0
0
0
0
0
0
0
0
0
0
0
0
0
0
0
0
0
-4.98065e-06
-1.26494e-05
-1.91088e-05
-2.49804e-05
-2.06643e-06
-3.68585e-06
-1.06157e-05
-1.13206e-05
-1.02295e-05
)
;
    }
    ceiling
    {
        type            calculated;
        value           nonuniform List<scalar> 
43
(
-5.91724e-05
-5.69499e-05
-5.51665e-05
-2.80478e-05
-1.9124e-05
-1.53674e-05
-1.30351e-05
-1.13955e-05
-1.02611e-05
-9.52022e-06
-9.12446e-06
-9.04199e-06
-9.19432e-06
-9.46032e-06
-9.75504e-06
-1.0041e-05
-1.03048e-05
-1.05371e-05
-1.07245e-05
-1.08526e-05
-1.0913e-05
-1.09056e-05
-1.0847e-05
-1.07441e-05
-1.06026e-05
-1.04267e-05
-1.02193e-05
-9.98213e-06
-9.71449e-06
-9.41449e-06
-9.08813e-06
-8.73569e-06
-8.35714e-06
-7.95062e-06
-7.51173e-06
-6.87793e-06
-6.56972e-06
-6.53815e-06
-6.7958e-06
-6.43956e-06
6.29591e-06
3.87139e-06
-8.43551e-05
)
;
    }
    sWall
    {
        type            calculated;
        value           uniform -0.000279225;
    }
    nWall
    {
        type            calculated;
        value           nonuniform List<scalar> 6(-5.42052e-05 -6.46822e-05 -6.92664e-05 -8.477e-05 -9.32977e-05 -0.000111666);
    }
    sideWalls
    {
        type            empty;
        value           nonuniform 0();
    }
    glass1
    {
        type            calculated;
        value           nonuniform List<scalar> 9(-5.97957e-05 -0.000160659 -0.000245467 -0.000317685 -0.000379044 -0.000430834 -0.000478127 -0.000535442 -0.00059949);
    }
    glass2
    {
        type            calculated;
        value           nonuniform List<scalar> 2(-0.000293156 -0.000325657);
    }
    sun
    {
        type            calculated;
        value           uniform 0;
    }
    heatsource1
    {
        type            calculated;
        value           nonuniform List<scalar> 3(2.05028e-07 2.04925e-07 2.04944e-07);
    }
    heatsource2
    {
        type            calculated;
        value           nonuniform List<scalar> 4(5.14212e-08 5.15265e-08 0 0);
    }
    Table_master
    {
        type            calculated;
        value           nonuniform List<scalar> 9(-1.53773e-07 -1.53867e-07 -1.539e-07 -1.53922e-07 -1.53938e-07 -1.53948e-07 -1.53952e-07 -1.53945e-07 -1.53911e-07);
    }
    Table_slave
    {
        type            calculated;
        value           nonuniform List<scalar> 9(1.5363e-07 1.53652e-07 1.5363e-07 1.53612e-07 1.53607e-07 1.53611e-07 1.53631e-07 1.5368e-07 1.53772e-07);
    }
    inlet
    {
        type            calculated;
        value           uniform -0.00623716;
    }
    outlet
    {
        type            calculated;
        value           nonuniform List<scalar> 2(0.00823153 0.00331635);
    }
}


// ************************************************************************* //
