/*--------------------------------*- C++ -*----------------------------------*=========                 |
  \      /  F ield         | OpenFOAM: The Open Source CFD Toolbox
   \    /   O peration     | Website:  https://openfoam.org
    \  /    A nd           | Version:  6
     \/     M anipulation  |
\*---------------------------------------------------------------------------*/
FoamFile
{
    version     2.0;
    format      ascii;
    class       volScalarField;
    location    "2000";
    object      PMV;
}
// * * * * * * * * * * * * * * * * * * * * * * * * * * * * * * * * * * * * * //

dimensions      [0 0 0 0 0 0 0];

internalField   nonuniform List<scalar> 
459
(
1.6541829846550766
1.4376977000023168
1.4114499336201074
1.3884924000202488
1.3730537178452635
1.363703006343769
1.3611130961856523
1.3651400528841333
1.3750832374631197
1.392062840320492
1.418044464332061
1.4540664877980842
1.5021606318564467
1.5370387519869653
1.5418159606611384
1.6067677426761091
1.5938752280725688
1.5890998835924541
1.5910100431302288
1.5933977017932746
1.596262832099751
1.5944623848468846
1.5903396074119325
1.5896375761230317
1.5904490316478295
1.592303140742592
1.594135075725989
1.596523196430433
1.599829019883738
1.6050532621600673
1.614414672660001
1.6239556312726573
1.627774823328252
1.6397089859956608
1.6163199455486603
1.4587328166101554
1.450549146340167
1.4292119444455864
1.4170214395917273
1.4096738105376239
1.4074636532816802
1.4096127543069747
1.4143598854217156
1.4229235089454593
1.4378724599010637
1.4622341905168506
1.4973239950439965
1.5284393724892236
1.5293948845035443
1.5293948845035443
1.5293948845035443
1.5715342760882822
1.5843243587682914
1.5805038103100257
1.5824483919488754
1.576529283164871
1.5719963812910687
1.570442787797177
1.5714212744288338
1.572533049724012
1.573314473812605
1.5739304335998372
1.5746322346492148
1.5754900034215493
1.5765614762992242
1.5790766455306537
1.5867377736721815
1.605335307805597
1.6110649459261996
1.6036209912394963
1.6581665842380258
1.461670385370815
1.486477901985186
1.4765414918466964
1.4740534850084783
1.4732571430493264
1.4748430714495566
1.475776885626626
1.4710828746571691
1.464191557081898
1.4605176813563794
1.4667012074578387
1.4851240269867194
1.5168876919699872
1.5265283295595657
1.5289171292853811
1.5303503901991726
1.4799016385789914
1.5201419172085657
1.5321887543831818
1.541607280169766
1.5511840517052076
1.5580237569662776
1.5614153839531264
1.5695639950448914
1.5757480553046965
1.5783711306213937
1.5795117665569556
1.5805447413744234
1.5805376483016953
1.5796147564378473
1.5752808921785162
1.5771138588995244
1.5949910690966125
1.5872589507948665
1.541996763965103
1.734055388380235
1.4677437345801878
1.5142970295805465
1.524540220543904
1.5420674150185485
1.5581199287130427
1.5701004562380938
1.5649025614208905
1.5384124835595256
1.5015352115873213
1.4712931503517508
1.4559751530837775
1.4594926778629176
1.480856052187544
1.5122313610420723
1.5298726381420713
1.5136801019600816
1.4728440732040289
1.4725865030771765
1.5002133146968193
1.5261279683063307
1.5478686427807218
1.566620945856775
1.5808373995544267
1.58578816002791
1.584289894996675
1.5837734748805397
1.5849438143441978
1.5863836374229643
1.5898083375333667
1.5965772472832656
1.6082286009692277
1.6309828609488506
1.6244169711216245
1.6095611374338765
1.5675893860755852
1.4985639013474383
1.8232761395478465
1.488436511420102
1.5418222609886678
1.5709861286623656
1.618990252523127
1.6737713007468202
1.6969749331726791
1.6492130770022697
1.5768531127662995
1.5079361141935352
1.4590417787702246
1.4324751351291787
1.4297590830814746
1.4473132335795307
1.4767608370709864
1.5031771510017804
1.5094669828369067
1.5064723048458784
1.5151115508502628
1.5396451290070006
1.5691961075962353
1.5961010810038951
1.6190956723313192
1.6362846994390143
1.6461248755009086
1.6488109469817058
1.6494509690866574
1.6492088265566944
1.64783992108935
1.6463326096868443
1.6457099570970997
1.6471308404368572
1.6489208285705224
1.6350402104793507
1.6088596275467548
1.5502367918233464
1.543673185378681
1.6735950583276609
1.660617098204926
1.4987657732283668
1.9133168175374988
1.530803570456892
1.594327191213912
1.6245058755726511
1.6936352771092018
1.7222572563417657
1.7079659946808927
1.628168093397982
1.5502011872701933
1.479004507066799
1.4264787806944268
1.4006917456591872
1.4016029599950932
1.425605603110749
1.4636647474083038
1.5041794045539691
1.5345613886481597
1.5558971723508455
1.5800941326406588
1.6103846132062711
1.6296843724145549
1.644482301386139
1.656891967163892
1.6664369085138486
1.6740722511645472
1.67979839645904
1.6845699444441546
1.6874327676609475
1.6888641493939254
1.6874327676609475
1.684092799520878
1.6793212296298115
1.6710150848194298
1.645676379992784
1.611311708515411
1.550052026843943
1.5471262791457214
1.5634709505270474
1.5627482940434967
1.5751396305874492
2.00314382706226
1.626430139148546
1.7459404504186569
1.7200915738257214
1.7165394139326386
1.689590962560464
1.6350056336337124
1.5615871546162023
1.4822075495486098
1.4140040088923538
1.37124599562414
1.359698617979832
1.3789349042694832
1.4215297006071494
1.4794380471524669
1.5414566243191319
1.582891666432005
1.606290266256623
1.627774823328252
1.6468688831505671
1.6630962747571167
1.6759810009338705
1.6864785020930309
1.6941123775792448
1.6998374074675988
1.7041309654456742
1.706516195348672
1.707947305683396
1.7074702712109044
1.7046080160172026
1.6988832584314646
1.6922039622491238
1.6836156523973793
1.6720548376571671
1.631722919790144
1.5742465842125732
1.551934797803545
1.5416848406005577
1.516071439842185
1.6009291293888535
2.1354045651923226
1.9457438011995254
1.9010295254363103
1.8018831335599161
1.741957307772913
1.6590477344067056
1.5540859842352068
1.4470444724173095
1.3593170238002348
1.3059774633062546
1.2941517939632219
1.3209424875708344
1.3779447009379815
1.455988291065069
1.5462682634400124
1.5881447929955301
1.6206137361913369
1.6468688831505671
1.6673913562321367
1.6831385030758927
1.6955436655089449
1.7050850642954265
1.7122405117799224
1.7174875073629738
1.7208263564900015
1.7227342182107446
1.723688134812648
1.7232111777017938
1.7213033254791479
1.7179644928871505
1.7127175230660394
1.7050850642954265
1.6969749331726791
1.6874327676609475
1.6764581829710958
1.6654824523064522
1.6458101276004014
1.6343275039469694
1.57407574826714
1.4901025485535033
2.332573335905443
2.2005957656561783
2.035142662652614
1.8543436388330672
1.6432788855285054
1.426230954916926
1.2566960941003953
1.1534104642324354
1.1213449651910117
1.1511187018605569
1.2274177031201836
1.3360236731068786
1.459267952383231
1.5413382470763135
1.5972178609030985
1.6411410017890018
1.669300226134795
1.6888641493939254
1.7031768574316863
1.7141485429303909
1.7227342182107446
1.7245137506965094
1.7236991180319106
1.721852935985911
1.719491719751912
1.7161013774099838
1.7112632640044922
1.7047201047304883
1.6966689116780513
1.687062911174377
1.676004063261383
1.6638606352908143
1.6521159805799839
1.637840619015873
1.6217255571437406
1.6079840822238702
1.5989591811864854
1.5938124537249547
1.583283694020224
1.5529259292965554
-2.974194846220228
-1.8428384086644571
-1.1406788331999866
-0.390410877696177
0.17177163929512945
0.606996239692304
0.9592076366090486
1.21954920783576
1.382179582484665
1.5074165371937842
1.5805038103100257
1.6315938900385825
1.6519930944251748
1.6683314126974
1.6806763579275086
1.6897127933123488
1.6951442733774686
1.6983436246857322
1.6992350735590176
1.6981442006720995
1.6961217784530918
1.6935131176012317
1.689660961989776
1.6848982195119124
1.6796849708276758
1.6741458451842959
1.668538996943114
1.6636988153797505
1.6595349539530262
1.656920346749421
1.6552595982964988
1.6537512752886372
1.653438075649769
1.6555275517392478
1.6660714435158992
1.7009046822604836
1.7726203153945281
1.6167039793595768
-2.4678520511285145
-0.999459369947749
0.045643047954504704
0.5787057024926197
0.9021717964107524
1.1050063350640513
1.2587353721806755
1.3774282702465874
1.4689512889289187
1.5374543298578496
1.583670853130964
1.6155748124352867
1.6386642639953242
1.6547523701973585
1.6661021289335678
1.6734789899157099
1.6783518543414233
1.6808853393409533
1.6828384450828495
1.6832543595682088
1.6833852477896087
1.6826926471458845
1.6816589429964564
1.6798156708813328
1.6782219816910275
1.6760488374383657
1.6745448062143993
1.6736764487933105
1.6745275384830343
1.677509472130522
1.6849710104886988
1.6963688531913619
1.7083750308562038
1.7185683063582844
1.7299739592423582
1.76827426798818
1.7035749223113035
1.6550350489715695
-0.8534971279004615
-0.9923685536624146
-0.8726475530084377
0.3769889228991978
0.8908632372934371
1.1059436603085768
1.2389960872699701
1.3410994276414483
1.4235291410385356
1.4908991534770286
1.5447087704372897
1.5865340263226684
1.6159105405362013
1.6364222509052202
1.6495235565563073
1.6574568912430256
1.6613193321678787
1.6628304482227716
1.6626298470773953
1.6622271845531493
1.6619183132147375
1.6617679353491663
1.6619455778166885
1.6624156140440425
1.6626519029001652
1.663185901883894
1.6646358931721028
1.6662358166817923
1.6688751750761395
1.6735389733501893
1.6804400688716716
1.6918373388223453
1.7130526447685084
1.751017822158546
1.7785217264678503
1.7847181666482246
1.7516088053077332
1.7103980293638525
1.6684691038761734
1.673578131436097
)
;

boundaryField
{
    ".*"
    {
        type            zeroGradient;
    }
}


// ************************************************************************* //
