/*--------------------------------*- C++ -*----------------------------------*\
  =========                 |
  \\      /  F ield         | OpenFOAM: The Open Source CFD Toolbox
   \\    /   O peration     | Website:  https://openfoam.org
    \\  /    A nd           | Version:  6
     \\/     M anipulation  |
\*---------------------------------------------------------------------------*/
FoamFile
{
    version     2.0;
    format      ascii;
    class       volScalarField;
    location    "900";
    object      nut;
}
// * * * * * * * * * * * * * * * * * * * * * * * * * * * * * * * * * * * * * //

dimensions      [0 2 -1 0 0 0 0];

internalField   nonuniform List<scalar> 
459
(
0.001163
0.00127596
0.00130383
0.00136928
0.00143106
0.00149046
0.00155106
0.00160199
0.00163327
0.00163879
0.00161398
0.00155539
0.0014594
0.0013233
0.00116207
0.000528101
0.000630471
0.000716215
0.000728955
0.000710212
0.000680559
0.00063763
0.000593879
0.000554202
0.000519189
0.000488386
0.000461208
0.00043706
0.000415565
0.000395916
0.000377156
0.000358017
0.000345251
0.000315921
0.00157228
0.00397271
0.00385896
0.00450549
0.00514899
0.0057708
0.00626434
0.00667772
0.00703579
0.00730781
0.00746377
0.00747492
0.00730015
0.00684027
0.0056482
0.00123473
0.000817442
0.000545374
0.00120574
0.00173005
0.0021326
0.00236605
0.00235947
0.00181536
0.00154018
0.00134973
0.00120649
0.00109437
0.00100415
0.0009297
0.000860227
0.00079171
0.000729528
0.000675589
0.000799429
0.000410626
0.0019084
0.00541856
0.00481884
0.0059487
0.00652296
0.00695408
0.00728575
0.00759789
0.00792863
0.00825552
0.00854011
0.0087391
0.00879673
0.00861534
0.00794985
0.00594895
0.001308
0.00100104
0.00154153
0.00208699
0.00261845
0.00299867
0.00292245
0.000902837
0.000791992
0.000702942
0.00063134
0.000573277
0.0005257
0.000486375
0.000454002
0.000428105
0.000464145
0.000540343
0.000914838
0.000477548
0.00222717
0.00684595
0.00488032
0.00626516
0.00670401
0.00687924
0.00703068
0.00725378
0.00756216
0.00792948
0.00830581
0.00863185
0.00883278
0.00884779
0.00862919
0.0078049
0.00488739
0.00152538
0.00189022
0.00250271
0.00317777
0.00376513
0.00413937
0.00387006
0.00101985
0.000923397
0.000853205
0.000798481
0.000751321
0.000709608
0.000669324
0.000627354
0.000579468
0.000542437
0.000565094
0.00108296
0.000527548
0.00255019
0.00865726
0.00537924
0.00613172
0.00664422
0.00668876
0.00670393
0.00688467
0.00717861
0.00757217
0.00799586
0.00835906
0.00857524
0.00861222
0.00848837
0.00816495
0.00741407
0.00628525
0.00593566
0.00590324
0.00596785
0.00601412
0.00597096
0.00569542
0.00470097
0.00420648
0.00390785
0.00367689
0.00344398
0.00312056
0.00272379
0.00226809
0.00178009
0.00131037
0.000976005
0.00105201
0.000695572
0.000642613
0.000767456
0.000860575
0.00289176
0.0106354
0.0073126
0.00633486
0.00671516
0.00671276
0.00671855
0.00681491
0.00704823
0.00743371
0.00789241
0.00828897
0.00850052
0.0084839
0.00830176
0.00807684
0.00789405
0.00776572
0.00774578
0.0077104
0.00759178
0.00739054
0.00711689
0.00675429
0.00624492
0.00579856
0.00541735
0.00506673
0.00472015
0.00433829
0.0038878
0.00335849
0.00275704
0.00212573
0.00159806
0.00120388
0.000947809
0.000834803
0.00119796
0.000904082
0.0031942
0.0119748
0.0100218
0.00812228
0.00770817
0.00731086
0.00699675
0.00692031
0.00712149
0.00755236
0.00807487
0.00850444
0.00869143
0.00859677
0.00833312
0.00812951
0.00817549
0.00840227
0.00855603
0.00849569
0.00823805
0.00785403
0.00739552
0.00688742
0.0063504
0.0058548
0.00541075
0.00500681
0.00463969
0.0043146
0.0040316
0.00365532
0.00317722
0.00262524
0.00213014
0.00169011
0.00140065
0.00132692
0.00134517
0.0010399
0.00324577
0.0103839
0.00942161
0.00859356
0.00781135
0.00714579
0.00681721
0.00689251
0.00732201
0.00796265
0.00860194
0.00902312
0.00909747
0.00884614
0.00848434
0.00833938
0.00854271
0.00879378
0.00875296
0.00844709
0.00795326
0.0073475
0.0066903
0.00603757
0.00544335
0.00493907
0.00451827
0.0041709
0.00389703
0.00370185
0.00358747
0.00351685
0.0032903
0.0029499
0.00267894
0.00257476
0.00272173
0.0031639
0.00402308
0.00155969
0.00315478
0.00371535
0.00406781
0.00417312
0.00443627
0.00500445
0.00586862
0.00694454
0.00807183
0.00904322
0.00965259
0.00977146
0.00944447
0.00889138
0.00859435
0.00851849
0.00851379
0.00836694
0.00798847
0.00741435
0.00670373
0.00593897
0.00520375
0.00456598
0.00405442
0.00365671
0.00334512
0.00309793
0.00290014
0.00273942
0.00260496
0.00249559
0.0024175
0.00236973
0.00236495
0.00239069
0.00238304
0.00228731
0.00212262
0.00144574
0.00140265
0.00374973
0.00693313
0.00896723
0.0102685
0.0110233
0.0112789
0.0111148
0.0106403
0.00988871
0.00902031
0.00832932
0.00797263
0.00773759
0.00740688
0.00691734
0.00628721
0.005573
0.00485313
0.00419498
0.00364712
0.00322809
0.00292546
0.002709
0.00255299
0.00244151
0.00236583
0.00232224
0.00231104
0.00232708
0.00236164
0.00241219
0.00247232
0.0025228
0.00253979
0.00252758
0.00223463
0.00119269
0.00220426
0.00716646
0.00961635
0.0102315
0.0103416
0.0100853
0.0095175
0.00878507
0.0080226
0.00730552
0.00670255
0.00626259
0.00590644
0.00550711
0.0050402
0.0045309
0.0040142
0.00353226
0.0031214
0.00279656
0.00255352
0.00237474
0.0022512
0.00217302
0.00213163
0.00212058
0.00213337
0.00217015
0.00223093
0.00231206
0.00241013
0.00251875
0.00262448
0.00271283
0.00278276
0.00277592
0.00191911
0.00123143
0.00197107
0.00209111
0.0021779
0.00234623
0.00223842
0.0021468
0.00206661
0.0019533
0.00180502
0.00163115
0.0014435
0.00126449
0.00111483
0.00100003
0.000914361
0.000849269
0.000798095
0.000757006
0.000724705
0.000701159
0.000686275
0.000679478
0.000679982
0.00068715
0.000699609
0.000716865
0.000738902
0.00076602
0.000798948
0.000837935
0.000883041
0.000934671
0.000993227
0.00105909
0.0011319
0.00121587
0.00123687
0.00112631
0.0010478
0.00118746
)
;

boundaryField
{
    floor
    {
        type            nutkWallFunction;
        Cmu             0.09;
        kappa           0.41;
        E               9.8;
        value           nonuniform List<scalar> 
29
(
0.000139611
6.3298e-05
7.61475e-05
8.67148e-05
8.82719e-05
8.59806e-05
8.23407e-05
7.70367e-05
7.15865e-05
6.66014e-05
6.21659e-05
5.82332e-05
5.47374e-05
5.16097e-05
4.88072e-05
4.62293e-05
4.37528e-05
4.12097e-05
3.95037e-05
3.55522e-05
3.55521e-05
4.81593e-05
5.68401e-05
6.32259e-05
0.000139611
6.32979e-05
6.54854e-05
0.000120838
0.000180965
)
;
    }
    ceiling
    {
        type            nutkWallFunction;
        Cmu             0.09;
        kappa           0.41;
        E               9.8;
        value           nonuniform List<scalar> 
43
(
0.000230057
0.000243092
0.000252469
0.000270689
0.000259171
0.000249309
0.000240633
0.000228304
0.000212046
0.000192792
0.000171757
0.000151405
0.000134142
0.000120721
0.000110591
0.000102821
9.66635e-05
9.16855e-05
8.77499e-05
8.48678e-05
8.30402e-05
8.22041e-05
8.22662e-05
8.31479e-05
8.46781e-05
8.67919e-05
8.94826e-05
9.27808e-05
9.67669e-05
0.000101462
0.000106862
0.000113003
0.000119922
0.000127648
0.000136125
0.000145826
0.000148241
0.000135477
0.000126329
0.000142556
0.000356186
0.000413932
0.000255091
)
;
    }
    sWall
    {
        type            nutkWallFunction;
        Cmu             0.09;
        kappa           0.41;
        E               9.8;
        value           uniform 0.000230122;
    }
    nWall
    {
        type            nutkWallFunction;
        Cmu             0.09;
        kappa           0.41;
        E               9.8;
        value           nonuniform List<scalar> 6(0.000104179 0.000109372 0.000125407 0.000143168 0.000147628 0.000142566);
    }
    sideWalls
    {
        type            empty;
    }
    glass1
    {
        type            nutkWallFunction;
        Cmu             0.09;
        kappa           0.41;
        E               9.8;
        value           nonuniform List<scalar> 9(0.000139864 0.000186483 0.000223745 0.000258427 0.000293035 0.000329131 0.000360723 0.000366091 0.000356655);
    }
    glass2
    {
        type            nutkWallFunction;
        Cmu             0.09;
        kappa           0.41;
        E               9.8;
        value           nonuniform List<scalar> 2(0.000184909 0.000172095);
    }
    sun
    {
        type            nutkWallFunction;
        Cmu             0.09;
        kappa           0.41;
        E               9.8;
        value           nonuniform List<scalar> 
14
(
0.000139727
0.000152715
0.0001559
0.000163351
0.000170348
0.000177044
0.000183844
0.000189537
0.000193022
0.000193637
0.000190872
0.000184327
0.000173543
0.000158118
)
;
    }
    heatsource1
    {
        type            nutkWallFunction;
        Cmu             0.09;
        kappa           0.41;
        E               9.8;
        value           nonuniform List<scalar> 3(7.76541e-05 9.29556e-05 0.000104175);
    }
    heatsource2
    {
        type            nutkWallFunction;
        Cmu             0.09;
        kappa           0.41;
        E               9.8;
        value           nonuniform List<scalar> 4(0.000147981 9.89991e-05 9.89991e-05 0.000156369);
    }
    Table_master
    {
        type            nutkWallFunction;
        Cmu             0.09;
        kappa           0.41;
        E               9.8;
        value           nonuniform List<scalar> 9(0.00010922 9.59282e-05 8.50911e-05 7.62587e-05 6.90077e-05 6.29993e-05 5.79826e-05 5.38149e-05 5.04543e-05);
    }
    Table_slave
    {
        type            nutkWallFunction;
        Cmu             0.09;
        kappa           0.41;
        E               9.8;
        value           nonuniform List<scalar> 9(0.000123048 0.000111665 0.000103294 9.6712e-05 9.09973e-05 8.59071e-05 8.09574e-05 7.57624e-05 6.97834e-05);
    }
    inlet
    {
        type            calculated;
        value           uniform 0.000100623;
    }
    outlet
    {
        type            calculated;
        value           nonuniform List<scalar> 2(0.00197107 0.00209111);
    }
}


// ************************************************************************* //
