/*--------------------------------*- C++ -*----------------------------------*=========                 |
  \      /  F ield         | OpenFOAM: The Open Source CFD Toolbox
   \    /   O peration     | Website:  https://openfoam.org
    \  /    A nd           | Version:  6
     \/     M anipulation  |
\*---------------------------------------------------------------------------*/
FoamFile
{
    version     2.0;
    format      ascii;
    class       volScalarField;
    location    "900";
    object      PMV;
}
// * * * * * * * * * * * * * * * * * * * * * * * * * * * * * * * * * * * * * //

dimensions      [0 0 0 0 0 0 0];

internalField   nonuniform List<scalar> 
459
(
1.6036527006220784
1.3828630789542007
1.3552654435475713
1.3313131914314735
1.316114655177077
1.3077913261809777
1.3072403775913626
1.3136523697115106
1.3276108731231744
1.3502442204272505
1.383112625407471
1.428379068403976
1.4874785322634878
1.4926558946187833
1.5022118568371405
1.5748153638771902
1.5614450313610893
1.556191482938251
1.5590570801635535
1.562400199951872
1.565741827739262
1.569562340242346
1.5642471278369496
1.5636181984211304
1.5644485870547635
1.5664272955270302
1.5688733381659659
1.5718962198075022
1.5758454875967787
1.5816938215805891
1.5920812147856602
1.6034644265442421
1.6087160393138962
1.62256010098459
1.5605420464668254
1.4041076413006055
1.3946577330766854
1.3729294641355718
1.3604654436455494
1.3541286679322102
1.3534218106760652
1.357159874060746
1.363729823250285
1.3757470974902857
1.3957043642775304
1.427134730025706
1.4712100001382498
1.4821436653859255
1.485488540821043
1.4859663744678466
1.4869220374695187
1.5436527207261996
1.549982481929523
1.54616141876648
1.5490272260474982
1.5487979036773631
1.545148531284554
1.543559285440367
1.5447242034568849
1.5467040252836597
1.5483603902935923
1.5498274941522452
1.550930214670246
1.5526592681677742
1.554621278371165
1.5584922793853282
1.5670285774148138
1.584843273208583
1.5920055834180156
1.5873338419544551
1.5999561521356658
1.4065781007591722
1.4317387959934915
1.422477311710688
1.4198643045235617
1.4200444617171852
1.4225426242871642
1.4214759915502373
1.4152166541974536
1.4078601719680768
1.407591671782333
1.4194199657075266
1.4464517999124402
1.4783208656057136
1.4821436653859255
1.485010705745675
1.486444206684588
1.4489585005444323
1.486411790049731
1.4969425444690234
1.5064313943287528
1.5186981662045385
1.5273452077326723
1.5313683630562864
1.5417400850859577
1.5498856358556434
1.554254031562632
1.5567939870930825
1.5586768052509745
1.559979058838446
1.5603315594658915
1.5572493588466918
1.5606485562706913
1.5797907178663477
1.5718276981701162
1.5245069420882822
1.673954360063938
1.4119250553733451
1.4608067954057933
1.4734670927541755
1.4932955743356664
1.5101659495692183
1.5210029657893598
1.5066614390567266
1.4706860441428846
1.4317977872046477
1.4048753229980082
1.397529437724869
1.4125885698138367
1.443230660248324
1.4770841065474591
1.4871164629288143
1.4542831708689545
1.4159100347303581
1.4247620742517468
1.4543055335991193
1.4832267160587436
1.5087014904228486
1.5324689298214988
1.551487032734195
1.5610368746571743
1.561890648006768
1.5633287862321843
1.5668458213540095
1.570667946775404
1.5764230634525662
1.5852426044872994
1.5987906423980023
1.62309354214248
1.6134900350156847
1.598603374391376
1.5533210932081252
1.4799531293590529
1.7630191007974805
1.4318377351984326
1.4892332288167138
1.5233969669058791
1.5788614891964747
1.639743557640674
1.6454734250780383
1.5721938338619303
1.492417452803356
1.4267177019229786
1.38477761237916
1.3695854113464412
1.3799574605121352
1.4084513560604426
1.443192614639086
1.4660658977590846
1.4645353791125537
1.4609501256498907
1.472500017145941
1.4987783681729316
1.5305752020343628
1.5616076933069523
1.5891782955259097
1.6118368712192126
1.6259015284201577
1.6341349699389718
1.6382068801810423
1.6412839727236976
1.642908475589853
1.64355164494111
1.6441115541767155
1.6453699313204044
1.64667139331983
1.6304523001133193
1.6007262089920198
1.5378729044336217
1.52957596239501
1.6678996541158766
1.6583360631217814
1.493476037505489
1.8533338164595379
1.4745921170711391
1.5423412901868903
1.580128786933039
1.6540611177903661
1.6855531081847677
1.6316400613840685
1.54569252785804
1.4630828097739865
1.3944084607985554
1.3510267091918822
1.3381833687127511
1.3540194691794019
1.3908963624084292
1.4375742983195927
1.4792105222695213
1.504948554973228
1.5231338944684771
1.5473790724751109
1.5789634820011513
1.6044192820684817
1.6220827464331453
1.637357120185083
1.6497660430226013
1.6602648180364072
1.6683768133413606
1.6755339445223725
1.6803050951171365
1.6826905885651782
1.68221349426064
1.6793508824198256
1.6741025570297858
1.6664681636587078
1.6449748389160754
1.6074216395935288
1.5403203914267527
1.5371150879838666
1.554290965330381
1.554984347103723
1.5693519302928085
1.944276597185632
1.570757746511895
1.6966820869974772
1.6784219802707308
1.6725204028248901
1.6298647487488616
1.5603605929195856
1.475616122358561
1.3921926032378142
1.3295068321293484
1.299539390398263
1.3050936166263545
1.341297344462629
1.3995121076335018
1.4684140530861942
1.534219922642625
1.5609674445146389
1.584843273208583
1.6063289707033355
1.62685620442075
1.6454708019332758
1.6612192020968064
1.6741025570297858
1.6845989437938709
1.692709058207419
1.6993874899412984
1.7041575259999087
1.7070194376563514
1.7074964148694944
1.7051115057520942
1.6993874899412984
1.6917549605229913
1.68221349426064
1.669331125389527
1.631723671256723
1.569809717930128
1.5443904618375415
1.5321946571650302
1.5076596042055628
1.5951905988376522
2.077216646025623
1.8955279901479754
1.8515242675565904
1.7525134201978065
1.6805512490054781
1.5792349988776688
1.459942187559262
1.3480142172733918
1.2664660282072524
1.2284616827642056
1.23706702408594
1.2853023492199862
1.3616066187202014
1.4572614018985601
1.537085973913464
1.5776805603592758
1.6096708535854998
1.6349706327039015
1.6550155561138573
1.6717168680624694
1.686507263737257
1.698433455392649
1.7079733897731502
1.715604672322418
1.7208508310445647
1.7246660391024509
1.72705046653375
1.7275273448247621
1.7260967027497252
1.7227584541219532
1.7175123994227555
1.7094043006044932
1.6998645038083333
1.6879384804564896
1.6755339445223725
1.6626507624136813
1.640432026735808
1.6268807441834923
1.5669765345982898
1.482767359990105
2.2768343300009413
2.14763293728934
1.9852806446765356
1.797247297286739
1.5383550263317924
1.3021484012572906
1.1363707460450565
1.0529153569947585
1.0480801901547385
1.1072160578567907
1.2120294166423844
1.3406440888739874
1.4740201084688838
1.5399519672239905
1.6029869959870864
1.6416526714189017
1.6664681636587078
1.6850760270930842
1.6993874899412984
1.7117891055922463
1.7218046473363307
1.724777102354782
1.7261499248759409
1.7265436018196716
1.7256546285732972
1.7238340127440288
1.7200386272999393
1.7143634163173345
1.706519420976017
1.6965567622749687
1.6852526724792467
1.6724356066378907
1.660400871697376
1.6466497896806467
1.6318453172753093
1.6182034591738208
1.608896079720927
1.6022005802979518
1.5893499318132716
1.5621817124434623
-2.970765732569831
-2.002084824487393
-1.2101865729310088
-0.3988578210669549
0.1977358726687793
0.6504403044368454
1.018510781249523
1.2469026169995685
1.4157103233512291
1.5227551454301227
1.59057315388823
1.6198390130675984
1.6436427832138452
1.6621605171238583
1.676447934216427
1.6872867643574703
1.6955146239072112
1.7012506536349108
1.7041789054863852
1.7057730571620093
1.7052674477122651
1.7032945077849455
1.7007733830354206
1.6970064317147693
1.6928169743433734
1.6877550594877497
1.682496509937684
1.677325004486268
1.673074341101365
1.6701588936899192
1.6678178890299467
1.6660472537668405
1.6653482856538442
1.6668600566852974
1.675712086053322
1.7067439689210038
1.8190406590725077
1.6692579532063716
-2.4867525711020124
-1.0019734713921633
0.06448716313819412
0.6133137014184804
0.9166434816876374
1.1208137857202898
1.2727239923548148
1.390921398296168
1.4808824343597584
1.5442001779611296
1.5878743483481566
1.6195224656642495
1.6425045534160891
1.6589550572245981
1.6714266378058347
1.6803464139635786
1.6867098411179258
1.6911296480646456
1.6933206453710536
1.6949287875490762
1.6956251451581552
1.6954101515452182
1.6950400723932528
1.694415282223584
1.6930348104084418
1.6919451156631293
1.6903695578801319
1.6896435316942127
1.6897873127179013
1.692143205802437
1.6981263954762795
1.7077091364232382
1.7196839134017707
1.7306237446586232
1.7452586858934944
1.8061775875102997
1.7074462680624098
1.7956059444494743
-0.8074545447362259
-0.9437493035232912
-0.8265167354662482
0.4279058865351024
0.9335049002501102
1.1406596277472645
1.2684337365477454
1.3661608627918884
1.444938105440211
1.5091832946461448
1.5607362656783124
1.5996438834441802
1.6277856509941027
1.6484464399045913
1.6625833017688814
1.6718571034367788
1.6776549795994011
1.6808813431361518
1.6824356379743752
1.6822324525087677
1.6816554408725484
1.6809873125406876
1.6803908510667287
1.6804302594237301
1.6803930772675402
1.6807514133089092
1.6815988090550602
1.6831321613935741
1.6851807299988173
1.6895274284715316
1.6954066365015148
1.705678314469474
1.7240302002434515
1.7574320674428352
1.7856877569125247
1.7899767449662232
1.794742029089899
1.7221394769856802
1.729199098739754
1.6349781686787588
)
;

boundaryField
{
    ".*"
    {
        type            zeroGradient;
    }
}


// ************************************************************************* //
