/*--------------------------------*- C++ -*----------------------------------*\
  =========                 |
  \\      /  F ield         | OpenFOAM: The Open Source CFD Toolbox
   \\    /   O peration     | Website:  https://openfoam.org
    \\  /    A nd           | Version:  6
     \\/     M anipulation  |
\*---------------------------------------------------------------------------*/
FoamFile
{
    version     2.0;
    format      ascii;
    class       volScalarField;
    location    "100";
    object      epsilon;
}
// * * * * * * * * * * * * * * * * * * * * * * * * * * * * * * * * * * * * * //

dimensions      [0 2 -3 0 0 0 0];

internalField   nonuniform List<scalar> 
459
(
0.00123111
0.00173683
0.0019819
0.00240846
0.00297134
0.00347619
0.00379034
0.00367445
0.00315537
0.00263689
0.00214572
0.00169233
0.00134177
0.00103211
0.00073878
0.000132863
0.000213429
0.000345259
0.000463951
0.000496665
0.000466365
0.000384975
0.000308793
0.000249582
0.000204779
0.000170636
0.000144284
0.000123558
0.000106928
9.32501e-05
8.13702e-05
7.01615e-05
5.90027e-05
4.41751e-05
0.00259089
0.00312047
0.00161284
0.00171879
0.00210293
0.00248264
0.00267808
0.00257631
0.00218941
0.00177308
0.00141248
0.00113341
0.000946101
0.000806379
0.000659414
0.000904403
0.000569302
0.000121563
0.000155654
0.000278645
0.000337959
0.000355523
0.000353039
0.000374138
0.000307296
0.000241918
0.000190169
0.000150936
0.000121489
9.92107e-05
8.20778e-05
6.89105e-05
6.0626e-05
5.66955e-05
6.70556e-05
5.82503e-05
0.00429097
0.00631863
0.00204122
0.00192783
0.0023838
0.00268276
0.00273101
0.00260249
0.00224975
0.00180257
0.00139945
0.00109435
0.000879722
0.000727371
0.000603521
0.000602329
0.000711954
0.00013436
0.000245635
0.000317467
0.00036379
0.000379262
0.000402157
0.000928153
0.00060766
0.000410458
0.000287644
0.000208962
0.000156958
0.000121605
9.76034e-05
8.28492e-05
6.29223e-05
5.33241e-05
7.71578e-05
6.64416e-05
0.00648907
0.0119521
0.0032391
0.00254775
0.00302983
0.00308825
0.0029784
0.00281751
0.00243537
0.00190771
0.00142582
0.00107265
0.000833761
0.00067398
0.000564193
0.000521186
0.000562621
0.00084318
0.000599154
0.000500754
0.000476326
0.000473386
0.00046426
0.000488136
0.00137391
0.00103029
0.000805173
0.000643364
0.000515657
0.000409007
0.000317187
0.000236842
0.000164154
8.24258e-05
5.33484e-05
8.82118e-05
7.20145e-05
0.00931324
0.0200663
0.00598022
0.00409462
0.0041645
0.00374652
0.00349416
0.00325729
0.00276218
0.00207663
0.00145906
0.00102995
0.000765817
0.000614866
0.000533958
0.000509465
0.000570451
0.000710711
0.000685168
0.000661845
0.000653678
0.000633052
0.000589446
0.000540906
0.000552728
0.000523002
0.000485422
0.000438343
0.00038091
0.000316877
0.000250803
0.000187461
0.000128794
7.46128e-05
5.02024e-05
7.1326e-05
6.64815e-05
7.2991e-05
0.000111614
0.00016928
0.0128171
0.028856
0.0117738
0.00724558
0.0056927
0.00473116
0.00427391
0.00390229
0.00321397
0.00227958
0.00146811
0.000948182
0.000677557
0.000565344
0.000536739
0.000567993
0.000670296
0.000785282
0.000848071
0.000871888
0.00085166
0.000787734
0.000694953
0.00059684
0.000522366
0.000466998
0.00042019
0.000369331
0.000311861
0.000251205
0.00019229
0.000140403
9.76546e-05
6.39033e-05
5.20758e-05
6.1383e-05
6.70854e-05
6.84258e-05
0.000218821
0.000198861
0.0153841
0.0334418
0.0188528
0.0110084
0.00753215
0.00595203
0.00527115
0.00472831
0.00374412
0.00244088
0.00139272
0.000811541
0.000610218
0.000568146
0.000599029
0.000681837
0.000812392
0.000939653
0.0010127
0.00100615
0.000935015
0.000821513
0.000690242
0.000563554
0.000461438
0.000395599
0.000343533
0.000292326
0.000240671
0.00019182
0.000149542
0.000116454
9.16701e-05
7.45986e-05
7.61424e-05
8.77216e-05
0.000107548
0.000149632
0.000340631
0.000311049
0.015358
0.0291603
0.0184243
0.0121277
0.00871535
0.00711088
0.00639327
0.0056635
0.00420036
0.00234444
0.00113926
0.000736605
0.000633243
0.000639031
0.000699793
0.000797916
0.000919209
0.00101425
0.00103194
0.000967007
0.000845471
0.000700853
0.000561119
0.000445919
0.000363093
0.000305798
0.000260466
0.000221055
0.000187938
0.000163693
0.000150576
0.000149761
0.000161769
0.000189199
0.000239188
0.000346547
0.000583727
0.00110899
0.0042884
0.000966547
0.0136856
0.019896
0.0152912
0.0111555
0.00880454
0.00792648
0.00746252
0.00639234
0.00391584
0.00171166
0.000950607
0.000734725
0.000693034
0.000717764
0.00077406
0.000843026
0.000902374
0.000917602
0.000868583
0.000767737
0.00064232
0.00051872
0.000413076
0.000331261
0.000271386
0.000226906
0.000192313
0.000166709
0.000152742
0.00015476
0.000177577
0.000225976
0.000305018
0.000420565
0.000577333
0.000781322
0.00103328
0.00129486
0.00151352
0.000795044
0.00148127
0.00440724
0.00706804
0.00794603
0.00644178
0.0036693
0.00189692
0.0011179
0.00083614
0.000751202
0.000740085
0.000756946
0.000780847
0.000796315
0.000787968
0.000743438
0.00066497
0.000568961
0.000473939
0.000391952
0.000326731
0.000276563
0.000237508
0.000205902
0.000180322
0.000161833
0.000152963
0.000156533
0.0001752
0.000212229
0.000272823
0.000364199
0.000491908
0.000650866
0.000814002
0.000927499
0.000873776
0.000470358
0.0066235
0.0140098
0.00865005
0.00496225
0.00278941
0.00168842
0.00113763
0.000897068
0.000805281
0.000775838
0.000769861
0.000769745
0.000765626
0.000750406
0.00071915
0.000670922
0.000610858
0.000547868
0.000489635
0.000440047
0.000399469
0.000366443
0.000339211
0.000316555
0.00029809
0.000284148
0.000275346
0.000272313
0.000275995
0.000288545
0.000314092
0.000358042
0.000423506
0.000506592
0.000575209
0.000642287
0.000560042
0.000515664
0.00304479
0.00371706
0.00431455
0.00465007
0.00300732
0.00231369
0.0018736
0.00155013
0.00134827
0.00123556
0.00117712
0.0011478
0.00113012
0.00111064
0.00107884
0.00102746
0.000954106
0.000862845
0.000763548
0.00066725
0.000581623
0.00050948
0.000450083
0.000401228
0.000360759
0.000327285
0.000300212
0.000279374
0.000264686
0.000256066
0.000253655
0.000258189
0.000271346
0.000295679
0.0003329
0.000384736
0.000397631
0.000335072
0.000283618
0.00030035
)
;

boundaryField
{
    floor
    {
        Cmu             0.09;
        kappa           0.41;
        E               9.8;
        type            epsilonWallFunction;
        value           nonuniform List<scalar> 
29
(
0.00073878
0.000132863
0.000213429
0.000345259
0.000463951
0.000496665
0.000466365
0.000384975
0.000308793
0.000249582
0.000204779
0.000170636
0.000144284
0.000123558
0.000106928
9.32501e-05
8.13702e-05
7.01615e-05
5.90027e-05
4.41751e-05
4.41751e-05
5.82503e-05
6.64416e-05
7.20145e-05
0.00073878
0.000132863
0.000121563
0.00013436
0.00084318
)
;
    }
    ceiling
    {
        Cmu             0.09;
        kappa           0.41;
        E               9.8;
        type            epsilonWallFunction;
        value           nonuniform List<scalar> 
43
(
0.00304479
0.00371706
0.00431455
0.00465007
0.00300732
0.00231369
0.0018736
0.00155013
0.00134827
0.00123556
0.00117712
0.0011478
0.00113012
0.00111064
0.00107884
0.00102746
0.000954106
0.000862845
0.000763548
0.00066725
0.000581623
0.00050948
0.000450083
0.000401228
0.000360759
0.000327285
0.000300212
0.000279374
0.000264686
0.000256066
0.000253655
0.000258189
0.000271346
0.000295679
0.0003329
0.000384736
0.000397631
0.000335072
0.000283618
0.00030035
0.0136856
0.019896
0.0066235
)
;
    }
    sWall
    {
        Cmu             0.09;
        kappa           0.41;
        E               9.8;
        type            epsilonWallFunction;
        value           uniform 0.00304479;
    }
    nWall
    {
        Cmu             0.09;
        kappa           0.41;
        E               9.8;
        type            epsilonWallFunction;
        value           nonuniform List<scalar> 6(0.00016928 0.000198861 0.000311049 0.000470358 0.000515664 0.00030035);
    }
    sideWalls
    {
        type            empty;
    }
    glass1
    {
        Cmu             0.09;
        kappa           0.41;
        E               9.8;
        type            epsilonWallFunction;
        value           nonuniform List<scalar> 9(0.00123111 0.00259089 0.00429097 0.00648907 0.00931324 0.0128171 0.0153841 0.015358 0.0136856);
    }
    glass2
    {
        Cmu             0.09;
        kappa           0.41;
        E               9.8;
        type            epsilonWallFunction;
        value           nonuniform List<scalar> 2(0.000966547 0.000795044);
    }
    sun
    {
        Cmu             0.09;
        kappa           0.41;
        E               9.8;
        type            epsilonWallFunction;
        value           nonuniform List<scalar> 
14
(
0.00123111
0.00173683
0.0019819
0.00240846
0.00297134
0.00347619
0.00379034
0.00367445
0.00315537
0.00263689
0.00214572
0.00169233
0.00134177
0.00103211
)
;
    }
    heatsource1
    {
        Cmu             0.09;
        kappa           0.41;
        E               9.8;
        type            epsilonWallFunction;
        value           nonuniform List<scalar> 3(7.2991e-05 0.000111614 0.00016928);
    }
    heatsource2
    {
        Cmu             0.09;
        kappa           0.41;
        E               9.8;
        type            epsilonWallFunction;
        value           nonuniform List<scalar> 4(0.000904403 0.000569302 0.000569302 0.000711954);
    }
    Table_master
    {
        Cmu             0.09;
        kappa           0.41;
        E               9.8;
        type            epsilonWallFunction;
        value           nonuniform List<scalar> 9(0.000928153 0.00060766 0.000410458 0.000287644 0.000208962 0.000156958 0.000121605 9.76034e-05 8.28492e-05);
    }
    Table_slave
    {
        Cmu             0.09;
        kappa           0.41;
        E               9.8;
        type            epsilonWallFunction;
        value           nonuniform List<scalar> 9(0.00137391 0.00103029 0.000805173 0.000643364 0.000515657 0.000409007 0.000317187 0.000236842 0.000164154);
    }
    inlet
    {
        type            turbulentMixingLengthDissipationRateInlet;
        mixingLength    0.01;
        phi             phi;
        k               k;
        value           uniform 0.000101881;
    }
    outlet
    {
        type            zeroGradient;
    }
}


// ************************************************************************* //
