/*--------------------------------*- C++ -*----------------------------------*=========                 |
  \      /  F ield         | OpenFOAM: The Open Source CFD Toolbox
   \    /   O peration     | Website:  https://openfoam.org
    \  /    A nd           | Version:  6
     \/     M anipulation  |
\*---------------------------------------------------------------------------*/
FoamFile
{
    version     2.0;
    format      ascii;
    class       volScalarField;
    location    "100";
    object      PMV;
}
// * * * * * * * * * * * * * * * * * * * * * * * * * * * * * * * * * * * * * //

dimensions      [0 0 0 0 0 0 0];

internalField   nonuniform List<scalar> 
459
(
0.9053996128775729
0.6181893107012509
0.5799052339682212
0.567452930200757
0.5866939866864035
0.6380341815780477
0.723576156015912
0.8399861017586768
0.8310647543886682
0.7937983980118755
0.7741217359864063
0.7710994430571879
0.7901943660150664
0.8358001886734326
0.8668479945642804
1.419000609811573
1.3830963014712776
1.3567625911176948
1.3577202349687358
1.3792661404533348
1.390282120335946
1.3770070166969555
1.3757936732807483
1.3832918259275393
1.3946074415382919
1.4066838137415483
1.4203934609948312
1.4349056461056298
1.4507400412027391
1.470150423505521
1.4952381311596958
1.532025794844115
1.5857687496708333
1.6433427740956916
0.788070695430495
0.6361000781917279
0.6227137673644257
0.6063155462602431
0.6168381046475622
0.6346521677678476
0.6610777902969
0.7419707676943683
0.8206763407477282
0.8492486037463532
0.8552350775594496
0.8560837183042926
0.8575332281788706
0.8545548155215636
0.8319042516113985
0.8487279710440613
0.9171193078548163
1.4285739911599005
1.3591566932232568
1.3165380727851805
1.3071079198129614
1.319571396370354
1.3343974907540153
1.3466426813024936
1.360287816225842
1.3753824308665141
1.3901727069795973
1.4051761203111326
1.420827548112873
1.4372101940206332
1.4544077974124265
1.4733978459560864
1.4987353854874197
1.5371575998463478
1.5833712819419394
1.6279871493350466
0.7786675493292445
0.6334347405331083
0.6776155166186125
0.6715082047040041
0.6588821993670867
0.6043131861188955
0.5758457884303839
0.6557684785512974
0.7798124020102108
0.8776111066293009
0.930370489579567
0.9464981285876726
0.9403072885976973
0.9183830207884172
0.8843310495465694
0.8838663686493914
0.8708182418658988
1.3578878807709283
1.2396076877012403
1.1953508944939741
1.219852431130028
1.2698817312237793
1.314147156683291
1.330213453061684
1.3631740800459329
1.3921465712895813
1.4152400908368696
1.436047149244224
1.4571629253114018
1.4783974280523091
1.4978322457435407
1.510789772862514
1.52997586389489
1.5616732420521329
1.5802215810642177
1.5788193286525856
0.8233775811913485
0.637198666012079
0.7375438303779803
0.7764913430434334
0.71494814061019
0.5672878543374885
0.5083737223836617
0.5952857225439263
0.7550869262915297
0.9086292208099951
1.0114845897402265
1.053067646424713
1.045074084829054
1.0061890413925334
0.9512253476283686
0.90365644889696
0.8458648463145629
0.842170000411216
0.9250546408829583
1.003212435565568
1.0931392985200339
1.1962433219823247
1.2957031631015916
1.3777792692009918
1.436139768686988
1.4695084097542486
1.5029206011431064
1.5400401672581296
1.5797108874624322
1.620855441416476
1.6646251840286275
1.714772075126517
1.7761269069016596
1.6963819190466423
1.635963456283578
1.5938123966163733
1.5534921717707981
0.8938406964193578
0.6628371089050835
0.8069215623826996
0.9131052740169251
0.7506655113767595
0.5251168749008457
0.4597550763378244
0.5572195020901514
0.7557242133753198
0.9611247136352599
1.112369503205981
1.1851588387028742
1.1786420572822596
1.121497364699872
1.0507844225106697
0.9914838801623359
0.9481802773814492
0.9687101791583648
1.01957697792116
1.1052577631370306
1.215501003537015
1.333367060900488
1.4424462458627354
1.534518186651445
1.609315224929982
1.661807184428466
1.705169987147881
1.743499885549019
1.776980383470189
1.8064693713548092
1.8290914792653303
1.8410156510212015
1.8434002649870391
1.7818544161132808
1.692737686543533
1.6151410788327067
1.5908902863773986
1.8228612371926325
2.042929580935457
1.845580753824769
0.9764416240766566
0.7179438117410875
0.9168658284890522
0.9936179635491406
0.709482209373151
0.4831007032307796
0.4179095799164162
0.5419639342278194
0.7899477686113104
1.0512306573585048
1.251476932331417
1.3246792795958247
1.312227917963969
1.2726765600006558
1.1965137000199095
1.1447527287293557
1.1214238250077202
1.155995977296096
1.2314583127329408
1.334016003151698
1.4490216377081166
1.5616964767498192
1.6633164999850114
1.7484387271608153
1.798080282567127
1.8367231598566618
1.8643816279867433
1.8858336471977752
1.902514056250526
1.9149025888787572
1.9210959961283351
1.9196667996841577
1.9058496536197185
1.8481692698352117
1.7620438286518867
1.665446184958822
1.6355556116713243
1.7211086922198613
1.7926531921968263
1.843459089987079
1.0775482423685123
0.8374959687003944
1.0894607358731516
0.9035704579945187
0.6272709324805803
0.39899236057164483
0.37158235321805594
0.5577312245500414
0.8773881817982815
1.2031885961183377
1.416128502377316
1.4548982460934183
1.4319245603686324
1.3936288867590532
1.3625083938541924
1.3538896356152987
1.3753423621573493
1.437530067954728
1.5313390489400611
1.6318715243326747
1.7216974234988187
1.7990346482844342
1.8605672729174814
1.9072791452452074
1.9430064120647135
1.963481029343766
1.9787134946478733
1.9910869852844102
1.999651696853429
2.0034578215946546
2.002030554858138
1.9925145261104025
1.9706217294747443
1.9182375723457425
1.854368527654062
1.759713394945501
1.7076306520920925
1.7180431098528928
1.7248293786550326
1.8138674300959914
1.2183841481777802
1.2053925753932875
1.1566032230868457
0.831220818265565
0.44874252548805627
0.24133227508620492
0.3298754944176969
0.6402554258048209
1.0661512458935414
1.4505909029744617
1.5740207758320988
1.5945823574984652
1.574977200030231
1.552977730403424
1.5429347496791936
1.556803979149274
1.6022323381787047
1.6825273731034789
1.7751722854123388
1.8591368390525151
1.9282415120088385
1.9829969225660091
2.023435713698148
2.0495860639738814
2.058321320773085
2.062328316539303
2.066597313856243
2.0704837133986227
2.0741097054299464
2.0768523331909847
2.075248055225541
2.0624186964483524
2.0415046141254196
2.0039335691409157
1.9534826425196856
1.9048966424762683
1.8721335631081746
1.8638178668344425
1.8178393194992517
1.750828755054059
1.4402077265531217
1.3711800184522631
1.2237907694334718
0.46736700937329767
-0.037023613993467853
-0.023222214978025648
0.38639417063116255
0.9129412804340105
1.4381468862453723
1.6588913378325396
1.6959845637232667
1.69689368013663
1.6936741758561367
1.700275290036255
1.723686689220248
1.7688807896947676
1.8345448199951055
1.911492648060953
1.9828605606298548
2.037632313864192
2.0759651316078687
2.1004827588872175
2.113816803473951
2.1203830260086436
2.1229180450036553
2.1233284156530603
2.122989292830322
2.120966480916008
2.1163300350575636
2.1075481333681467
2.0929317229952837
2.072611922187931
2.047499007123571
2.019951071047568
1.9940874540474605
1.976069075683802
1.9713010216635316
1.9759693140721188
1.9719466005846877
1.9797536757593142
3.0
-2.9681246580953546
-1.3886628739393039
0.04593801000116029
1.147918697252524
1.5616362773414423
1.7226895472060928
1.796165755472431
1.8268437133217044
1.8424203852546486
1.857884326690465
1.8801937813364886
1.913336519120998
1.9581355211680345
2.011769278940216
2.068010018935807
2.117433029412986
2.155261787104073
2.1797875188007385
2.1935730741482957
2.1994171366239805
2.1999268624506843
2.1980734287071306
2.1942132360273874
2.1891496726983135
2.181688769579627
2.1716104608409763
2.1581844091287903
2.1412069908927456
2.1230023176492883
2.1043839913962468
2.088562148940562
2.0773510409570264
2.075139559824812
2.088239236954112
2.1296485722328384
2.2296716251412927
2.3117299802217044
-1.3285794848329064
0.3329655300906597
0.9631057524951688
1.4118370134004135
1.7102484042187003
1.8571895585928666
1.9324072733421946
1.9744296637325478
2.002300669395598
2.0253676476132605
2.049846015538696
2.077363188802381
2.109451294269568
2.145976182569888
2.184151338206136
2.220692923890104
2.2504672893967106
2.2715882537650565
2.2842914738119444
2.2898227008634437
2.2903833995498095
2.2875983774670705
2.2830249260161097
2.2761548997694687
2.26750165618211
2.257128031321749
2.2446507025924407
2.230261650311454
2.2152252188042594
2.200435242747376
2.1879552887635056
2.179913697895275
2.1783671941187253
2.1849128151643242
2.198744845325161
2.246896878124644
2.2468036328432555
2.3299575072749024
0.8133287028872708
0.7153166964571142
0.7393051687642139
1.5939992598907002
1.9063186980115787
2.026645435907873
2.0963558505923445
2.1443372055523415
2.1800091464555975
2.2087571969002084
2.232548694793646
2.254178086593807
2.2744057989891893
2.2939598185779944
2.3134794000138497
2.332976334118999
2.350796008961066
2.3657772700567126
2.3767832269703435
2.382743554899211
2.38526058523862
2.3838844170548996
2.379741487534575
2.373423747125353
2.365513957973422
2.356608910191035
2.345778060834659
2.3337190505751613
2.3201277579008157
2.305766378298574
2.29035794170805
2.274668033471987
2.2593853327704854
2.2441993680434873
2.229644811820062
2.2157035167455357
2.2188272922387493
2.2501945597858666
2.2864955764163546
2.3900950057673547
)
;

boundaryField
{
    ".*"
    {
        type            zeroGradient;
    }
}


// ************************************************************************* //
