/*--------------------------------*- C++ -*----------------------------------*\
  =========                 |
  \\      /  F ield         | OpenFOAM: The Open Source CFD Toolbox
   \\    /   O peration     | Website:  https://openfoam.org
    \\  /    A nd           | Version:  6
     \\/     M anipulation  |
\*---------------------------------------------------------------------------*/
FoamFile
{
    version     2.0;
    format      ascii;
    class       volScalarField;
    location    "1500";
    object      nut;
}
// * * * * * * * * * * * * * * * * * * * * * * * * * * * * * * * * * * * * * //

dimensions      [0 2 -1 0 0 0 0];

internalField   nonuniform List<scalar> 
459
(
0.00114409
0.00125351
0.00127865
0.00134214
0.00140179
0.00145856
0.00151553
0.00156669
0.00160036
0.00161061
0.00159246
0.00154272
0.00145988
0.00134774
0.00122016
0.000518788
0.000624894
0.000705044
0.000707144
0.000685526
0.00065504
0.000614588
0.000573966
0.000537052
0.000504311
0.000475353
0.000449664
0.000426832
0.00040637
0.000387552
0.000369467
0.000350851
0.000338987
0.000310523
0.00155436
0.00389834
0.00377079
0.00440124
0.00502541
0.00563803
0.00615038
0.00656057
0.00692185
0.00720513
0.00737552
0.00739799
0.0072207
0.00671012
0.0053118
0.00125436
0.000761762
0.000547048
0.00116616
0.00163925
0.00199033
0.0021827
0.00217493
0.00171768
0.00147235
0.00129922
0.00116736
0.00106311
0.000978572
0.000906255
0.000838938
0.000773459
0.000715095
0.000663966
0.000791421
0.000409214
0.00189269
0.005327
0.00470671
0.00586577
0.00645631
0.00689922
0.00724402
0.00754557
0.00786481
0.00818524
0.00846681
0.00866431
0.0087263
0.00855398
0.00789091
0.00595327
0.0013016
0.0010458
0.00155105
0.00203329
0.00248132
0.00279116
0.00271504
0.000871531
0.000768194
0.000685083
0.000618074
0.000563566
0.000518759
0.000481644
0.000450956
0.000426215
0.00046051
0.000533167
0.000901457
0.000477257
0.00221466
0.00676526
0.00476124
0.00620223
0.0066953
0.006885
0.00703485
0.00723247
0.00751574
0.00786579
0.00822996
0.00855144
0.00877019
0.0088016
0.00859685
0.00783011
0.00521503
0.00153096
0.00190913
0.00249774
0.0030959
0.00358349
0.00387941
0.00362105
0.000981346
0.000892839
0.000829493
0.000780783
0.000738816
0.000700606
0.000663749
0.000625076
0.000580342
0.000543191
0.000560181
0.00106006
0.000527972
0.00254121
0.00859091
0.0052663
0.00603811
0.00664454
0.00670529
0.00670071
0.00685657
0.00711876
0.00749092
0.00790268
0.00827569
0.0085193
0.00858438
0.00847101
0.00814292
0.00739382
0.00617316
0.00576673
0.00566033
0.00564273
0.00562239
0.00554776
0.00529713
0.00442288
0.00400306
0.00375704
0.00356628
0.00336773
0.00308323
0.00271301
0.00227543
0.00179871
0.00132904
0.000983005
0.00103945
0.000694257
0.000641757
0.000766886
0.000859406
0.00288613
0.0105741
0.00719985
0.00618279
0.00662581
0.00670184
0.00668496
0.00678004
0.00698574
0.00733296
0.00777299
0.00818656
0.00844502
0.00847756
0.00830832
0.00803438
0.00774896
0.00749159
0.00735749
0.0072289
0.00704421
0.00681169
0.00654423
0.00622575
0.0057999
0.00543662
0.00512778
0.00484131
0.00455549
0.00424145
0.00384592
0.00335579
0.00277549
0.00214643
0.00160271
0.00119703
0.00093515
0.000822973
0.0011887
0.000902177
0.00319227
0.0119207
0.00990451
0.00795574
0.00761297
0.00730674
0.00701169
0.00690582
0.00704857
0.00742259
0.00792291
0.00838108
0.00863509
0.00860618
0.00834782
0.008041
0.00789222
0.00793028
0.00796387
0.00783163
0.00753537
0.00714394
0.00670761
0.00625278
0.00580214
0.00540714
0.00506258
0.00475223
0.00447104
0.00422262
0.00400319
0.00366444
0.00319527
0.00263746
0.00211814
0.00165591
0.00135115
0.00129335
0.00135604
0.00104498
0.00324489
0.0103885
0.00939234
0.00865638
0.0079556
0.00727771
0.00687951
0.00685895
0.00719406
0.00777287
0.00841042
0.00889261
0.00906056
0.00887941
0.008479
0.0081359
0.00807416
0.008164
0.00805123
0.00768909
0.00716534
0.00656637
0.0059612
0.00540771
0.00494381
0.0045733
0.00427335
0.00402864
0.00383763
0.00370631
0.00364055
0.00359946
0.00332616
0.00295957
0.00265215
0.00252645
0.00270876
0.00329035
0.00411425
0.0016045
0.00315333
0.00371681
0.00408834
0.00418337
0.00440971
0.00490856
0.00568946
0.00669193
0.00777978
0.00876922
0.00946769
0.00972128
0.00950955
0.00897359
0.0084447
0.00816523
0.00799345
0.0077412
0.00728622
0.00665208
0.00593318
0.00522788
0.00461512
0.0041312
0.00376715
0.00349018
0.00326934
0.00308565
0.00292762
0.00278635
0.00265445
0.00253546
0.00244275
0.00238228
0.00237296
0.00240113
0.00239415
0.00228863
0.00212381
0.0014754
0.00143686
0.00369687
0.00674234
0.00872805
0.0100354
0.0108313
0.0111578
0.0110874
0.0107048
0.0100896
0.00923164
0.00840561
0.00782096
0.00741151
0.00695952
0.00637821
0.00569689
0.00498887
0.00432348
0.00376654
0.0033478
0.00304772
0.00283193
0.00267144
0.00254808
0.00245257
0.00238127
0.00233454
0.00231667
0.00232469
0.00234701
0.00237998
0.00241187
0.00241081
0.00232935
0.00215198
0.0018905
0.00118817
0.00219514
0.00687473
0.00943123
0.0101043
0.0102998
0.0101369
0.00965051
0.00896892
0.00821152
0.00748134
0.00680185
0.0062452
0.00578146
0.00530016
0.00476845
0.00422533
0.00371461
0.00326994
0.00290859
0.00262557
0.00242139
0.00227966
0.00218551
0.00212938
0.00210523
0.00210793
0.00213126
0.00217074
0.00223314
0.00231343
0.00240753
0.0025074
0.00259592
0.00265836
0.00264502
0.00264291
0.00238403
0.00120302
0.00196537
0.00208464
0.00217074
0.00234056
0.00224535
0.00215837
0.00208599
0.00198163
0.00184159
0.00167423
0.00148885
0.00130302
0.00113938
0.00100959
0.000912276
0.000840109
0.000786011
0.000745322
0.000715798
0.000696499
0.000686668
0.000685583
0.000690633
0.000700921
0.000715888
0.000735283
0.000759111
0.000787663
0.00082165
0.000861922
0.000907938
0.000960166
0.001019
0.00108492
0.00115783
0.00125494
0.00128177
0.00124947
0.00116527
0.00107454
)
;

boundaryField
{
    floor
    {
        type            nutkWallFunction;
        Cmu             0.09;
        kappa           0.41;
        E               9.8;
        value           nonuniform List<scalar> 
29
(
0.000146314
6.21137e-05
7.54536e-05
8.53465e-05
8.5604e-05
8.29507e-05
7.91919e-05
7.41712e-05
6.9089e-05
6.44324e-05
6.02691e-05
5.6559e-05
5.32439e-05
5.02775e-05
4.7602e-05
4.51263e-05
4.27323e-05
4.02524e-05
3.86629e-05
3.48193e-05
3.48192e-05
4.79739e-05
5.68026e-05
6.32797e-05
0.000146314
6.21137e-05
6.56965e-05
0.00012609
0.000181593
)
;
    }
    ceiling
    {
        type            nutkWallFunction;
        Cmu             0.09;
        kappa           0.41;
        E               9.8;
        value           nonuniform List<scalar> 
43
(
0.000229433
0.000242387
0.000251693
0.000270077
0.000259912
0.000250556
0.000242733
0.000231394
0.000216069
0.000197583
0.000176868
0.000155812
0.000136991
0.000121846
0.000110344
0.000101723
9.52038e-05
9.02656e-05
8.66624e-05
8.42975e-05
8.30898e-05
8.29563e-05
8.3577e-05
8.48398e-05
8.66732e-05
8.9042e-05
9.19423e-05
9.54035e-05
9.95042e-05
0.000104338
0.000109829
0.000116022
0.000122953
0.000130664
0.00013913
0.000150314
0.000153388
0.000149688
0.000139991
0.000129454
0.000356043
0.000414089
0.000254114
)
;
    }
    sWall
    {
        type            nutkWallFunction;
        Cmu             0.09;
        kappa           0.41;
        E               9.8;
        value           uniform 0.000229498;
    }
    nWall
    {
        type            nutkWallFunction;
        Cmu             0.09;
        kappa           0.41;
        E               9.8;
        value           nonuniform List<scalar> 6(0.000104039 0.000109146 0.000126002 0.000142648 0.000144359 0.000129462);
    }
    sideWalls
    {
        type            empty;
    }
    glass1
    {
        type            nutkWallFunction;
        Cmu             0.09;
        kappa           0.41;
        E               9.8;
        value           nonuniform List<scalar> 9(0.000137669 0.000184473 0.000222022 0.000257079 0.000292082 0.000328543 0.000360528 0.000366004 0.000356508);
    }
    glass2
    {
        type            nutkWallFunction;
        Cmu             0.09;
        kappa           0.41;
        E               9.8;
        value           nonuniform List<scalar> 2(0.000189922 0.000175442);
    }
    sun
    {
        type            nutkWallFunction;
        Cmu             0.09;
        kappa           0.41;
        E               9.8;
        value           nonuniform List<scalar> 
14
(
0.00013754
0.000150146
0.000153024
0.000160268
0.000167038
0.000173453
0.000179862
0.000185595
0.000189357
0.000190499
0.000188474
0.000182909
0.000173599
0.000160903
)
;
    }
    heatsource1
    {
        type            nutkWallFunction;
        Cmu             0.09;
        kappa           0.41;
        E               9.8;
        value           nonuniform List<scalar> 3(7.75483e-05 9.28866e-05 0.000104036);
    }
    heatsource2
    {
        type            nutkWallFunction;
        Cmu             0.09;
        kappa           0.41;
        E               9.8;
        value           nonuniform List<scalar> 4(0.000150234 9.22667e-05 9.22667e-05 0.00015564);
    }
    Table_master
    {
        type            nutkWallFunction;
        Cmu             0.09;
        kappa           0.41;
        E               9.8;
        value           nonuniform List<scalar> 9(0.000105486 9.30464e-05 8.28979e-05 7.46087e-05 6.77856e-05 6.21165e-05 5.73749e-05 5.34201e-05 5.02071e-05);
    }
    Table_slave
    {
        type            nutkWallFunction;
        Cmu             0.09;
        kappa           0.41;
        E               9.8;
        value           nonuniform List<scalar> 9(0.000118519 0.00010803 0.000100448 9.45718e-05 8.94745e-05 8.48036e-05 8.02692e-05 7.54788e-05 6.98925e-05);
    }
    inlet
    {
        type            calculated;
        value           uniform 0.000100623;
    }
    outlet
    {
        type            calculated;
        value           nonuniform List<scalar> 2(0.00196537 0.00208464);
    }
}


// ************************************************************************* //
