/*--------------------------------*- C++ -*----------------------------------*\
  =========                 |
  \\      /  F ield         | OpenFOAM: The Open Source CFD Toolbox
   \\    /   O peration     | Website:  https://openfoam.org
    \\  /    A nd           | Version:  6
     \\/     M anipulation  |
\*---------------------------------------------------------------------------*/
FoamFile
{
    version     2.0;
    format      ascii;
    class       volScalarField;
    location    "2700";
    object      epsilon;
}
// * * * * * * * * * * * * * * * * * * * * * * * * * * * * * * * * * * * * * //

dimensions      [0 2 -3 0 0 0 0];

internalField   nonuniform List<scalar> 
459
(
0.000522442
0.000686587
0.000727495
0.000840796
0.000957178
0.00107707
0.00120635
0.00133319
0.00142263
0.00145308
0.00140863
0.0012862
0.0010978
0.000874966
0.00066186
4.72547e-05
8.28455e-05
0.00011776
0.000116778
0.000105176
9.093e-05
7.47458e-05
6.07184e-05
4.96417e-05
4.10373e-05
3.43193e-05
2.90164e-05
2.47905e-05
2.13744e-05
1.85271e-05
1.60445e-05
1.37397e-05
1.24938e-05
9.67503e-06
0.00131667
0.00186043
0.000650309
0.000632752
0.00066873
0.000726097
0.000808427
0.000908713
0.000996779
0.00104493
0.00103419
0.000961297
0.000836057
0.000686035
0.000571964
0.000717801
0.000140978
5.65889e-05
0.000133684
0.000142896
0.000130469
0.000111148
9.29258e-05
8.35123e-05
6.73239e-05
5.31158e-05
4.19293e-05
3.33504e-05
2.67963e-05
2.17819e-05
1.79523e-05
1.51264e-05
1.33797e-05
1.26537e-05
3.42665e-05
2.29571e-05
0.00238353
0.00448874
0.000815873
0.000613528
0.000651262
0.000742917
0.000873862
0.00102548
0.00115162
0.00121802
0.00121025
0.00113305
0.000998661
0.000840013
0.000695682
0.00062807
0.000773187
0.000408343
0.00030043
0.000229642
0.00017863
0.000141052
0.000118617
0.000215915
0.000147626
0.000104605
7.67612e-05
5.81594e-05
4.53415e-05
3.62744e-05
2.97573e-05
2.50969e-05
1.89724e-05
1.60175e-05
6.67897e-05
3.69418e-05
0.00382609
0.00920948
0.00130649
0.000643536
0.000662166
0.000799366
0.00101171
0.00123657
0.00139209
0.00145563
0.00142981
0.00132934
0.0011629
0.000973174
0.000802905
0.000688459
0.000668775
0.00126623
0.000718533
0.000433404
0.000290695
0.000209457
0.000159145
0.000135597
0.000307966
0.000230374
0.000183445
0.000152028
0.00012816
0.000108892
9.22882e-05
7.68533e-05
6.1361e-05
3.59588e-05
2.44159e-05
0.000118078
5.01771e-05
0.00578902
0.0162447
0.00259276
0.00082079
0.000740466
0.000943787
0.00132767
0.00162158
0.00176341
0.0017858
0.00171622
0.00156864
0.00135686
0.0011121
0.000873587
0.000675475
0.000538531
0.000482688
0.00039282
0.000309453
0.000242219
0.000190384
0.000151535
0.000125689
0.00012043
0.000110925
0.000101545
9.24055e-05
8.30572e-05
7.35942e-05
6.43935e-05
5.58049e-05
4.79786e-05
3.78031e-05
2.96823e-05
8.15664e-05
5.75817e-05
9.30009e-05
0.000158055
0.000221882
0.00848959
0.0239413
0.00579077
0.00169459
0.0012679
0.00162351
0.00213219
0.00232248
0.0023381
0.00226238
0.00211946
0.00190299
0.00161636
0.00128865
0.000967156
0.000698302
0.000508808
0.000397423
0.000325752
0.000267331
0.00021587
0.000173357
0.000140916
0.000119091
0.000108179
0.000102912
9.92865e-05
9.51435e-05
8.929e-05
8.07729e-05
7.00072e-05
5.91755e-05
4.94597e-05
4.09945e-05
3.68233e-05
5.72489e-05
5.99107e-05
7.16719e-05
0.000295725
0.000255931
0.0114968
0.0284681
0.0116803
0.00537992
0.00401915
0.00401001
0.00379553
0.00350091
0.00321412
0.00295223
0.0026796
0.00234877
0.00194556
0.0015014
0.00107588
0.000731178
0.000498051
0.000363679
0.000286609
0.000231671
0.000186614
0.000151494
0.000127012
0.000112871
0.000107783
0.000108181
0.000110458
0.000112799
0.000113968
0.00011213
0.000103255
9.1077e-05
7.92231e-05
6.93005e-05
6.69685e-05
7.93292e-05
0.000102068
0.000164535
0.00040944
0.000378934
0.0120768
0.0298035
0.0171843
0.0122918
0.00966219
0.00753136
0.00600371
0.00498969
0.00433056
0.00385852
0.00342082
0.00291364
0.00232308
0.00170392
0.00113674
0.000707873
0.000443973
0.000303414
0.000231096
0.000184949
0.00015117
0.000128061
0.000114688
0.000109692
0.000111356
0.000117621
0.000127005
0.000139193
0.000154366
0.00017244
0.000192158
0.000204028
0.000215672
0.000240311
0.00029026
0.000441635
0.000810418
0.00160541
0.00545145
0.00131491
0.0110807
0.0181555
0.0145869
0.011175
0.00878377
0.00728587
0.00638979
0.00585404
0.00546171
0.00501694
0.00438483
0.00353434
0.00259464
0.00171039
0.000971726
0.000521349
0.000320065
0.000224638
0.000173552
0.000141414
0.000120492
0.000108445
0.000103682
0.000104784
0.000110599
0.000120442
0.00013441
0.000153495
0.000179498
0.000215086
0.000263968
0.000331395
0.000425003
0.000566053
0.000774149
0.00105839
0.00138878
0.00168727
0.00191209
0.00105221
0.00372511
0.00656732
0.00841955
0.00890497
0.00889262
0.0084245
0.00743572
0.00603699
0.00443833
0.00278897
0.00167589
0.000969544
0.000549536
0.000331073
0.000225828
0.000172368
0.000141905
0.000122669
0.000110355
0.000103462
0.000101086
0.00010251
0.000107248
0.000115218
0.000126828
0.000143056
0.000165599
0.000197208
0.00024218
0.000306607
0.000398122
0.000527297
0.000702534
0.000918569
0.00114897
0.00136426
0.00122247
0.000593768
0.00370416
0.00848005
0.00848054
0.00703145
0.00608667
0.00510123
0.0040216
0.00295861
0.00201309
0.00125619
0.000762912
0.000472172
0.000312959
0.000230956
0.00018885
0.000165361
0.000150362
0.000139637
0.000131541
0.000125469
0.000121524
0.000120148
0.000121624
0.000126409
0.000135231
0.000149144
0.000169661
0.000199006
0.0002404
0.000298264
0.000378653
0.000488175
0.000629742
0.000796829
0.000973827
0.00122749
0.000650328
0.000653491
0.00266425
0.00318035
0.00359078
0.00450904
0.00400183
0.00356357
0.00322647
0.00277481
0.00223411
0.00168378
0.00118665
0.000793481
0.000525459
0.000360616
0.00026268
0.000203346
0.000165818
0.000141219
0.00012505
0.00011497
0.000109584
0.000108045
0.000109688
0.000113845
0.000120491
0.000129809
0.000142203
0.000158353
0.000179392
0.00020686
0.00024183
0.000286378
0.000343046
0.000415076
0.000505696
0.000625141
0.00066066
0.000499464
0.000404304
0.000590299
)
;

boundaryField
{
    floor
    {
        Cmu             0.09;
        kappa           0.41;
        E               9.8;
        type            epsilonWallFunction;
        value           nonuniform List<scalar> 
29
(
0.00066186
4.72547e-05
8.28455e-05
0.00011776
0.000116778
0.000105176
9.093e-05
7.47458e-05
6.07184e-05
4.96417e-05
4.10373e-05
3.43193e-05
2.90164e-05
2.47905e-05
2.13744e-05
1.85271e-05
1.60445e-05
1.37397e-05
1.24938e-05
9.67503e-06
9.67503e-06
2.29571e-05
3.69418e-05
5.01771e-05
0.00066186
4.72547e-05
5.65889e-05
0.000408343
0.00126623
)
;
    }
    ceiling
    {
        Cmu             0.09;
        kappa           0.41;
        E               9.8;
        type            epsilonWallFunction;
        value           nonuniform List<scalar> 
43
(
0.00266425
0.00318035
0.00359078
0.00450904
0.00400183
0.00356357
0.00322647
0.00277481
0.00223411
0.00168378
0.00118665
0.000793481
0.000525459
0.000360616
0.00026268
0.000203346
0.000165818
0.000141219
0.00012505
0.00011497
0.000109584
0.000108045
0.000109688
0.000113845
0.000120491
0.000129809
0.000142203
0.000158353
0.000179392
0.00020686
0.00024183
0.000286378
0.000343046
0.000415076
0.000505696
0.000625141
0.00066066
0.000499464
0.000404304
0.000590299
0.0110807
0.0181555
0.00370416
)
;
    }
    sWall
    {
        Cmu             0.09;
        kappa           0.41;
        E               9.8;
        type            epsilonWallFunction;
        value           uniform 0.00266425;
    }
    nWall
    {
        Cmu             0.09;
        kappa           0.41;
        E               9.8;
        type            epsilonWallFunction;
        value           nonuniform List<scalar> 6(0.000221882 0.000255931 0.000378934 0.000593768 0.000653491 0.000590299);
    }
    sideWalls
    {
        type            empty;
    }
    glass1
    {
        Cmu             0.09;
        kappa           0.41;
        E               9.8;
        type            epsilonWallFunction;
        value           nonuniform List<scalar> 9(0.000522442 0.00131667 0.00238353 0.00382609 0.00578902 0.00848959 0.0114968 0.0120768 0.0110807);
    }
    glass2
    {
        Cmu             0.09;
        kappa           0.41;
        E               9.8;
        type            epsilonWallFunction;
        value           nonuniform List<scalar> 2(0.00131491 0.00105221);
    }
    sun
    {
        Cmu             0.09;
        kappa           0.41;
        E               9.8;
        type            epsilonWallFunction;
        value           nonuniform List<scalar> 
14
(
0.000522442
0.000686587
0.000727495
0.000840796
0.000957178
0.00107707
0.00120635
0.00133319
0.00142263
0.00145308
0.00140863
0.0012862
0.0010978
0.000874966
)
;
    }
    heatsource1
    {
        Cmu             0.09;
        kappa           0.41;
        E               9.8;
        type            epsilonWallFunction;
        value           nonuniform List<scalar> 3(9.30009e-05 0.000158055 0.000221882);
    }
    heatsource2
    {
        Cmu             0.09;
        kappa           0.41;
        E               9.8;
        type            epsilonWallFunction;
        value           nonuniform List<scalar> 4(0.000717801 0.000140978 0.000140978 0.000773187);
    }
    Table_master
    {
        Cmu             0.09;
        kappa           0.41;
        E               9.8;
        type            epsilonWallFunction;
        value           nonuniform List<scalar> 9(0.000215915 0.000147626 0.000104605 7.67612e-05 5.81594e-05 4.53415e-05 3.62744e-05 2.97573e-05 2.50969e-05);
    }
    Table_slave
    {
        Cmu             0.09;
        kappa           0.41;
        E               9.8;
        type            epsilonWallFunction;
        value           nonuniform List<scalar> 9(0.000307966 0.000230374 0.000183445 0.000152028 0.00012816 0.000108892 9.22882e-05 7.68533e-05 6.1361e-05);
    }
    inlet
    {
        type            turbulentMixingLengthDissipationRateInlet;
        mixingLength    0.01;
        phi             phi;
        k               k;
        value           uniform 0.000101881;
    }
    outlet
    {
        type            zeroGradient;
    }
}


// ************************************************************************* //
