// -*- C++ -*-
// File generated by PyFoam - sorry for the ugliness

FoamFile
{
 version 2.0;
 format ascii;
 class volVectorField;
 location "2700";
 object U;
}

dimensions [ 0 1 -1 0 0 0 0 ];

internalField nonuniform List<vector> 459
(
  (0.0332817 0.0882611 0)
  (-0.171733 0.0265046 0)
  (-0.196959 0.0178701 0)
  (-0.227687 0.0118809 0)
  (-0.249298 0.00533017 0)
  (-0.260826 -0.00152114 0)
  (-0.260813 -0.00867963 0)
  (-0.24862 -0.0161033 0)
  (-0.225198 -0.0230402 0)
  (-0.192618 -0.0283908 0)
  (-0.154335 -0.0313312 0)
  (-0.114129 -0.0315775 0)
  (-0.0755676 -0.0294763 0)
  (-0.043697 -0.0264465 0)
  (-0.0336108 -0.0242627 0)
  (-0.00303864 0.0088461 0)
  (-0.0286131 -0.0193525 0)
  (-0.00347106 -0.029286 0)
  (0.02087 -0.0218311 0)
  (0.0378997 -0.0147035 0)
  (0.0508963 -0.00939327 0)
  (0.0587444 -0.00558312 0)
  (0.0627075 -0.00359291 0)
  (0.0645014 -0.00274411 0)
  (0.0654278 -0.00233439 0)
  (0.066014 -0.00206836 0)
  (0.0663387 -0.0018543 0)
  (0.0663424 -0.0016052 0)
  (0.0658216 -0.00114193 0)
  (0.0642089 -8.39526e-05 0)
  (0.0602988 0.00209529 0)
  (0.0527879 0.00436682 0)
  (0.0463019 0.00621187 0)
  (-0.0149893 0.0227715 0)
  (0.209614 0.180327 0)
  (-0.158768 0.0697549 0)
  (-0.15745 0.0529924 0)
  (-0.188873 0.0403631 0)
  (-0.210069 0.0261961 0)
  (-0.221688 0.0105586 0)
  (-0.222219 -0.00663617 0)
  (-0.211017 -0.0244739 0)
  (-0.189605 -0.0404945 0)
  (-0.160377 -0.0522676 0)
  (-0.126815 -0.0582586 0)
  (-0.0923714 -0.058214 0)
  (-0.0601785 -0.0527416 0)
  (-0.0336367 -0.0433985 0)
  (-0.0170025 -0.0320547 0)
  (-0.00337611 -0.0141194 0)
  (-0.00384824 0.0170138 0)
  (0.0729078 0.0368084 0)
  (0.0306097 -0.0200207 0)
  (0.0382731 -0.0335279 0)
  (0.0501119 -0.0290362 0)
  (0.0593252 -0.0202419 0)
  (0.065603 -0.0120742 0)
  (0.0681829 -0.00505762 0)
  (0.0685958 -0.00115674 0)
  (0.0685009 0.000482011 0)
  (0.0685806 0.00122669 0)
  (0.0687563 0.00167989 0)
  (0.0688827 0.00205447 0)
  (0.0689156 0.00252913 0)
  (0.0688003 0.00345293 0)
  (0.0679951 0.00574231 0)
  (0.0640122 0.0120969 0)
  (0.0539532 0.0173704 0)
  (0.0502145 0.0208399 0)
  (-0.0569055 0.049131 0)
  (0.370781 0.269314 0)
  (-0.173759 0.110484 0)
  (-0.117707 0.0852344 0)
  (-0.147581 0.0629509 0)
  (-0.166058 0.0397462 0)
  (-0.17631 0.0144871 0)
  (-0.175807 -0.0132275 0)
  (-0.163763 -0.041436 0)
  (-0.142871 -0.0658018 0)
  (-0.116133 -0.0826786 0)
  (-0.0870579 -0.0902435 0)
  (-0.0583307 -0.0888293 0)
  (-0.0319865 -0.0795472 0)
  (-0.0100998 -0.0642736 0)
  (0.00629187 -0.0435061 0)
  (0.0175475 -0.0180051 0)
  (0.0233661 0.0187585 0)
  (0.12058 -0.03585 0)
  (0.0790555 -0.0436511 0)
  (0.0730176 -0.0417831 0)
  (0.0748087 -0.0344464 0)
  (0.0761418 -0.02503 0)
  (0.0769981 -0.0168963 0)
  (0.0752887 -0.0135113 0)
  (0.0707477 -0.00949383 0)
  (0.0675713 -0.00730863 0)
  (0.0661431 -0.00605395 0)
  (0.0655266 -0.00525414 0)
  (0.0652156 -0.0046992 0)
  (0.0652201 -0.00419164 0)
  (0.0660158 -0.0033493 0)
  (0.068822 -0.000162389 0)
  (0.0664836 0.0173423 0)
  (0.0521573 0.0295074 0)
  (0.0569712 0.0373482 0)
  (-0.094469 0.0758158 0)
  (0.515585 0.340641 0)
  (-0.206639 0.14642 0)
  (-0.0765066 0.112299 0)
  (-0.103761 0.0816888 0)
  (-0.11646 0.051621 0)
  (-0.122396 0.0181312 0)
  (-0.117136 -0.0200183 0)
  (-0.101978 -0.0585245 0)
  (-0.081274 -0.0898851 0)
  (-0.0581603 -0.110074 0)
  (-0.0355945 -0.117776 0)
  (-0.0147397 -0.114566 0)
  (0.00405983 -0.101742 0)
  (0.0196557 -0.0822343 0)
  (0.0331997 -0.0581876 0)
  (0.0480073 -0.0309458 0)
  (0.0704817 -0.000860549 0)
  (0.102675 0.0136431 0)
  (0.108587 -0.0283745 0)
  (0.0931287 -0.0379301 0)
  (0.0837256 -0.0354033 0)
  (0.0789586 -0.0298373 0)
  (0.0755968 -0.0225197 0)
  (0.0737298 -0.0136218 0)
  (0.0753569 -0.00796463 0)
  (0.0798781 -0.00609121 0)
  (0.0835565 -0.00502549 0)
  (0.0858879 -0.00421078 0)
  (0.0871413 -0.00322149 0)
  (0.0866916 -0.00178262 0)
  (0.0835478 0.000302354 0)
  (0.0764656 0.00333423 0)
  (0.0624548 0.00788833 0)
  (0.0507997 0.0286489 0)
  (0.0383245 0.0456119 0)
  (0.0607027 0.0582971 0)
  (-0.139716 0.0983809 0)
  (0.639743 0.395746 0)
  (-0.247128 0.175642 0)
  (-0.0367596 0.12727 0)
  (-0.0579839 0.091749 0)
  (-0.062098 0.0575468 0)
  (-0.0596418 0.0174606 0)
  (-0.0427569 -0.0308463 0)
  (-0.0234177 -0.0768237 0)
  (-0.00474004 -0.110966 0)
  (0.011763 -0.130701 0)
  (0.0244141 -0.135693 0)
  (0.034373 -0.129594 0)
  (0.0420422 -0.114788 0)
  (0.0483068 -0.0939574 0)
  (0.0543818 -0.0697567 0)
  (0.0621635 -0.0453153 0)
  (0.0743436 -0.0265757 0)
  (0.0850425 -0.0251473 0)
  (0.08602 -0.0334338 0)
  (0.0789201 -0.0335509 0)
  (0.0701714 -0.0294283 0)
  (0.0632905 -0.0243654 0)
  (0.0582781 -0.0187344 0)
  (0.0554362 -0.0125731 0)
  (0.0552944 -0.00679028 0)
  (0.0574908 -0.00406184 0)
  (0.059965 -0.003025 0)
  (0.0623135 -0.00213608 0)
  (0.0644269 -0.000368931 0)
  (0.0658732 0.00276248 0)
  (0.0654666 0.00733283 0)
  (0.0626501 0.0135154 0)
  (0.056691 0.0219896 0)
  (0.0495882 0.0378377 0)
  (0.038242 0.056965 0)
  (0.0681222 0.0781206 0)
  (-0.0381677 0.110383 0)
  (0.047529 0.0249882 0)
  (-0.0691722 -0.0375804 0)
  (-0.28606 -0.0611627 0)
  (0.729088 0.441428 0)
  (-0.286344 0.194843 0)
  (-0.00691019 0.1215 0)
  (-0.00963265 0.0896105 0)
  (-0.000698887 0.0540661 0)
  (0.0197752 0.00492771 0)
  (0.0494703 -0.0506625 0)
  (0.0691929 -0.0947192 0)
  (0.0814625 -0.124202 0)
  (0.0869959 -0.139163 0)
  (0.0871819 -0.140997 0)
  (0.0838018 -0.132308 0)
  (0.07836 -0.115913 0)
  (0.0724433 -0.0947313 0)
  (0.0674932 -0.071507 0)
  (0.06477 -0.049249 0)
  (0.064998 -0.0320051 0)
  (0.0650967 -0.0247551 0)
  (0.0611425 -0.0243288 0)
  (0.0533112 -0.023801 0)
  (0.0446519 -0.0213357 0)
  (0.0375567 -0.0180199 0)
  (0.0325313 -0.0143879 0)
  (0.0298353 -0.0105999 0)
  (0.0295583 -0.00744224 0)
  (0.0312467 -0.00629957 0)
  (0.0338556 -0.00615531 0)
  (0.0369804 -0.00569849 0)
  (0.0404304 -0.00388229 0)
  (0.0440586 0.000143222 0)
  (0.0470484 0.0064835 0)
  (0.0485855 0.014822 0)
  (0.04892 0.0254102 0)
  (0.0496095 0.0401033 0)
  (0.0476562 0.058685 0)
  (0.0763039 0.083431 0)
  (0.047894 0.102854 0)
  (0.0975938 0.0684404 0)
  (0.122257 0.044783 0)
  (-0.138325 -0.00977031 0)
  (0.785962 0.483198 0)
  (-0.304175 0.179258 0)
  (0.0241036 0.0652466 0)
  (0.057873 0.0549889 0)
  (0.084164 0.028963 0)
  (0.128352 -0.0252432 0)
  (0.156969 -0.0735521 0)
  (0.170715 -0.107813 0)
  (0.171639 -0.127963 0)
  (0.162439 -0.135402 0)
  (0.146289 -0.131994 0)
  (0.126292 -0.120191 0)
  (0.10514 -0.102773 0)
  (0.0850712 -0.0823995 0)
  (0.0676728 -0.0612628 0)
  (0.0539177 -0.041764 0)
  (0.0440313 -0.0268204 0)
  (0.0363909 -0.0188239 0)
  (0.0287201 -0.016254 0)
  (0.0204922 -0.0153262 0)
  (0.0128286 -0.0140024 0)
  (0.00679502 -0.0123805 0)
  (0.00269908 -0.0107416 0)
  (0.000669913 -0.00922262 0)
  (0.000663317 -0.00831349 0)
  (0.00220407 -0.00854471 0)
  (0.00461662 -0.00923754 0)
  (0.00765163 -0.00945828 0)
  (0.0113623 -0.00829142 0)
  (0.0159093 -0.00469107 0)
  (0.0224485 0.00229974 0)
  (0.0285693 0.011429 0)
  (0.0345835 0.0220533 0)
  (0.0424382 0.0349247 0)
  (0.0504602 0.049839 0)
  (0.0766872 0.0698512 0)
  (0.0896125 0.0776087 0)
  (0.126432 0.0509451 0)
  (0.168705 0.0418827 0)
  (-0.0321914 0.0953062 0)
  (0.89395 0.482601 0)
  (-0.0561109 0.157625 0)
  (0.11964 -0.0236304 0)
  (0.208197 -0.0598143 0)
  (0.254279 -0.0733721 0)
  (0.279144 -0.0900529 0)
  (0.287814 -0.105419 0)
  (0.279782 -0.115087 0)
  (0.257267 -0.117935 0)
  (0.224545 -0.114188 0)
  (0.186338 -0.104704 0)
  (0.146749 -0.0907342 0)
  (0.109059 -0.0741321 0)
  (0.0755771 -0.0566954 0)
  (0.0475042 -0.0396272 0)
  (0.025608 -0.0246385 0)
  (0.00999597 -0.0140505 0)
  (-0.000863723 -0.00885557 0)
  (-0.00892654 -0.00764489 0)
  (-0.0156875 -0.00774095 0)
  (-0.021318 -0.00785046 0)
  (-0.0256195 -0.00788038 0)
  (-0.0285783 -0.00796745 0)
  (-0.0302201 -0.00824442 0)
  (-0.0306918 -0.00893297 0)
  (-0.0303815 -0.0101241 0)
  (-0.0296917 -0.0114712 0)
  (-0.0287303 -0.0124961 0)
  (-0.027314 -0.0126875 0)
  (-0.0249963 -0.011442 0)
  (-0.0206972 -0.00799436 0)
  (-0.0109534 -0.00166913 0)
  (-0.00157406 0.00638121 0)
  (0.0102198 0.0146117 0)
  (0.0226263 0.0215836 0)
  (0.0452063 0.0299372 0)
  (0.0653778 0.0235361 0)
  (0.0845433 -0.00276431 0)
  (0.145119 0.0511595 0)
  (-0.474459 0.21797 0)
  (1.04628 0.426969 0)
  (0.495629 0.278748 0)
  (0.51478 0.172874 0)
  (0.549859 0.0946004 0)
  (0.529761 0.0405866 0)
  (0.481933 -0.00214868 0)
  (0.426665 -0.0333278 0)
  (0.36627 -0.0522281 0)
  (0.301594 -0.0601851 0)
  (0.23603 -0.0597425 0)
  (0.173678 -0.0536106 0)
  (0.117429 -0.0437814 0)
  (0.069524 -0.0324311 0)
  (0.030428 -0.0212315 0)
  (-0.000675068 -0.0110187 0)
  (-0.0219037 -0.00413459 0)
  (-0.0339626 -0.0012237 0)
  (-0.0413015 -0.000693971 0)
  (-0.0464049 -0.00142223 0)
  (-0.0507783 -0.00250686 0)
  (-0.054595 -0.00357705 0)
  (-0.0578389 -0.004618 0)
  (-0.0605537 -0.00570011 0)
  (-0.0628407 -0.00686676 0)
  (-0.0649223 -0.00815909 0)
  (-0.067148 -0.00951078 0)
  (-0.0698779 -0.0106544 0)
  (-0.0734088 -0.0112024 0)
  (-0.0780452 -0.0106631 0)
  (-0.0842162 -0.00840381 0)
  (-0.0925078 -0.00366391 0)
  (-0.102853 0.00411931 0)
  (-0.113592 0.0146068 0)
  (-0.129327 0.027899 0)
  (-0.154128 0.0438112 0)
  (-0.19013 0.0608192 0)
  (-0.24185 0.0744932 0)
  (-0.303575 0.0826416 0)
  (-0.381094 0.0860893 0)
  (-0.655321 0.0802037 0)
  (-0.180185 -0.0205604 0)
  (0.100253 -0.0357648 0)
  (0.177121 -0.0552331 0)
  (0.164188 -0.0477169 0)
  (0.144945 -0.0345723 0)
  (0.120841 -0.0226232 0)
  (0.0888976 -0.0124146 0)
  (0.0530816 -0.00443893 0)
  (0.0182342 0.00105627 0)
  (-0.0146496 0.00472087 0)
  (-0.0382666 0.00603702 0)
  (-0.0554704 0.00615983 0)
  (-0.0664204 0.0052122 0)
  (-0.0721149 0.00313646 0)
  (-0.0753333 0.000662128 0)
  (-0.0775444 -0.00186372 0)
  (-0.079587 -0.00441083 0)
  (-0.0817684 -0.00679193 0)
  (-0.0842591 -0.0088231 0)
  (-0.0869967 -0.0103035 0)
  (-0.0898271 -0.0113594 0)
  (-0.0928088 -0.0120635 0)
  (-0.0961203 -0.0124542 0)
  (-0.099945 -0.0124828 0)
  (-0.104394 -0.0119512 0)
  (-0.109442 -0.0105165 0)
  (-0.114879 -0.00772245 0)
  (-0.120291 -0.00304803 0)
  (-0.125055 0.00387262 0)
  (-0.128706 0.0133064 0)
  (-0.131618 0.0261749 0)
  (-0.134066 0.0429881 0)
  (-0.136851 0.0631501 0)
  (-0.140131 0.0835297 0)
  (-0.14006 0.095836 0)
  (-0.117887 0.0855982 0)
  (-0.0419199 0.0285135 0)
  (-0.209354 -0.18684 0)
  (0.036084 0.198004 0)
  (0.013657 0.0637392 0)
  (-0.0320547 0.0117605 0)
  (-0.0556942 0.0109677 0)
  (-0.0739841 0.0170476 0)
  (-0.0874676 0.0216308 0)
  (-0.0965213 0.0254097 0)
  (-0.103301 0.028555 0)
  (-0.108144 0.0304879 0)
  (-0.111321 0.0309481 0)
  (-0.11261 0.030422 0)
  (-0.112539 0.030123 0)
  (-0.111339 0.030222 0)
  (-0.109602 0.0307749 0)
  (-0.107951 0.0320098 0)
  (-0.106631 0.0338369 0)
  (-0.105765 0.0358626 0)
  (-0.105377 0.0376039 0)
  (-0.105443 0.0385868 0)
  (-0.105864 0.038369 0)
  (-0.106668 0.0372369 0)
  (-0.107843 0.0356832 0)
  (-0.109389 0.0338148 0)
  (-0.111283 0.0317182 0)
  (-0.113456 0.0295057 0)
  (-0.115772 0.0272939 0)
  (-0.117986 0.0251632 0)
  (-0.119615 0.0233738 0)
  (-0.119864 0.0231586 0)
  (-0.117564 0.0257044 0)
  (-0.111266 0.0320315 0)
  (-0.0997749 0.0430596 0)
  (-0.0832126 0.0586404 0)
  (-0.0630941 0.0748 0)
  (-0.0423697 0.0820157 0)
  (0.0395721 0.0328496 0)
  (0.150406 -0.0588737 0)
  (-0.0518088 -0.0627558 0)
  (-0.0916137 -0.346669 0)
  (-0.446872 -0.138593 0)
  (-0.333648 0.0441869 0)
  (-0.291904 -0.0445277 0)
  (-0.251122 -0.0510568 0)
  (-0.239882 -0.0437162 0)
  (-0.231928 -0.0367388 0)
  (-0.22268 -0.0323496 0)
  (-0.211097 -0.0301495 0)
  (-0.197454 -0.0302459 0)
  (-0.182725 -0.0331675 0)
  (-0.168313 -0.0389063 0)
  (-0.155437 -0.0466804 0)
  (-0.144711 -0.0552087 0)
  (-0.13622 -0.0639634 0)
  (-0.129814 -0.0727249 0)
  (-0.125119 -0.0811739 0)
  (-0.121694 -0.0889539 0)
  (-0.119202 -0.0956697 0)
  (-0.117429 -0.100889 0)
  (-0.116282 -0.104262 0)
  (-0.115762 -0.105584 0)
  (-0.115855 -0.105043 0)
  (-0.116452 -0.103202 0)
  (-0.117395 -0.100221 0)
  (-0.118522 -0.0961934 0)
  (-0.119613 -0.0911186 0)
  (-0.120359 -0.0848904 0)
  (-0.12036 -0.0772663 0)
  (-0.119087 -0.0681442 0)
  (-0.115577 -0.0580796 0)
  (-0.107999 -0.0469927 0)
  (-0.0937709 -0.0345598 0)
  (-0.070743 -0.0200802 0)
  (-0.0393835 -0.00304634 0)
  (0.00552736 0.0160724 0)
  (0.0466813 0.0078797 0)
  (0.107646 -0.0467322 0)
  (0.119299 -0.0880703 0)
  (-0.517246 0.0111508 0)
)
;

boundaryField
{
  floor
  {
    type noSlip;
  }
  ceiling
  {
    type noSlip;
  }
  sWall
  {
    type noSlip;
  }
  nWall
  {
    type noSlip;
  }
  sideWalls
  {
    type empty;
  }
  glass1
  {
    type noSlip;
  }
  glass2
  {
    type noSlip;
  }
  sun
  {
    type noSlip;
  }
  heatsource1
  {
    type noSlip;
  }
  heatsource2
  {
    type noSlip;
  }
  Table_master
  {
    type noSlip;
  }
  Table_slave
  {
    type noSlip;
  }
  inlet
  {
    type fixedValue;
    value uniform (0.277164 -0.114805 0);
  }
  outlet
  {
    type zeroGradient;
  }
} 	// ************************************************************************* //

