/*--------------------------------*- C++ -*----------------------------------*\
  =========                 |
  \\      /  F ield         | OpenFOAM: The Open Source CFD Toolbox
   \\    /   O peration     | Website:  https://openfoam.org
    \\  /    A nd           | Version:  6
     \\/     M anipulation  |
\*---------------------------------------------------------------------------*/
FoamFile
{
    version     2.0;
    format      ascii;
    class       volScalarField;
    location    "2200";
    object      nut;
}
// * * * * * * * * * * * * * * * * * * * * * * * * * * * * * * * * * * * * * //

dimensions      [0 2 -1 0 0 0 0];

internalField   nonuniform List<scalar> 
459
(
0.0011374
0.00124576
0.00126994
0.00133269
0.0013915
0.00144728
0.0015029
0.00155395
0.0015882
0.00159983
0.00158384
0.00153718
0.00145894
0.00135383
0.00123522
0.00051428
0.00062169
0.000699107
0.000697086
0.00067383
0.000642604
0.000602761
0.000563148
0.000527208
0.00049532
0.000467096
0.000442033
0.000419759
0.000399769
0.000381355
0.000363626
0.000345328
0.000333928
0.000306047
0.0015482
0.00388096
0.00375575
0.00438581
0.00500654
0.00561777
0.00613562
0.00654197
0.00689966
0.00718037
0.00734785
0.00736458
0.00717306
0.00662496
0.0051195
0.00126937
0.000732505
0.00054706
0.00114849
0.00160131
0.00193273
0.00211073
0.00210339
0.00167852
0.00144535
0.00127965
0.00115284
0.00105215
0.000970185
0.000899278
0.000832995
0.000768445
0.000710998
0.000659851
0.000783747
0.000406062
0.00188714
0.0053048
0.0046904
0.00587524
0.00647745
0.00692599
0.00727282
0.0075649
0.00787234
0.00818137
0.00845223
0.00863884
0.00868765
0.00850815
0.00784347
0.0059421
0.00129943
0.00106054
0.00154841
0.00200425
0.00242032
0.0027048
0.00263068
0.000855974
0.000755355
0.000674418
0.000609122
0.000555968
0.000512247
0.000476014
0.000446028
0.000421805
0.000455901
0.000527437
0.000887427
0.000474141
0.00220992
0.00674481
0.00474145
0.00622673
0.00675076
0.00694702
0.00708947
0.00726704
0.00753129
0.00786511
0.00821556
0.0085262
0.00873523
0.00876699
0.0085636
0.00782498
0.00535115
0.00153353
0.00191169
0.00248487
0.0030502
0.00350086
0.00377125
0.0035218
0.000962327
0.000876244
0.000814631
0.00076725
0.000726404
0.000689123
0.000653212
0.000615591
0.000572114
0.000536386
0.000552362
0.00103792
0.000524621
0.00253733
0.00857267
0.00524571
0.00604792
0.00670656
0.00677666
0.00675359
0.00688335
0.00712454
0.00747952
0.00787813
0.00824463
0.00848876
0.00855604
0.00844018
0.00810787
0.00736505
0.00611443
0.00568401
0.005549
0.00550458
0.00546694
0.00538851
0.00515122
0.00431483
0.00391355
0.00367727
0.00349229
0.00329862
0.00302136
0.00265959
0.00223212
0.00176672
0.0013067
0.0009658
0.0010165
0.000685547
0.000639935
0.000764577
0.000855926
0.00288301
0.0105552
0.00717621
0.00616331
0.00664216
0.00676349
0.00670988
0.00679272
0.00698204
0.00730936
0.00773464
0.0081445
0.00841041
0.00845286
0.00828145
0.00798274
0.00765322
0.00734478
0.00717069
0.00701814
0.00682496
0.00659649
0.00634075
0.00603787
0.00563125
0.00528229
0.00498382
0.00470654
0.00443084
0.00413005
0.00374977
0.003276
0.00271262
0.00209922
0.00156658
0.00116613
0.000914814
0.000808183
0.00117151
0.000897328
0.00318993
0.0119019
0.00987612
0.00792321
0.00759177
0.00732038
0.00703059
0.00691299
0.00703335
0.00738316
0.00786798
0.00832624
0.00859428
0.00858089
0.00831718
0.00796358
0.0077298
0.00768835
0.00768659
0.00755141
0.0072656
0.00688737
0.00646201
0.00601805
0.00558376
0.00520886
0.00488514
0.00459513
0.00433311
0.00410227
0.00389887
0.0035719
0.003115
0.0025705
0.00206288
0.00160822
0.0013112
0.00125185
0.00131476
0.00103105
0.0032428
0.010385
0.00938185
0.00867643
0.00799807
0.00732072
0.0069029
0.00685193
0.00715447
0.0077079
0.00833613
0.00882879
0.00901942
0.00885469
0.00843124
0.00800201
0.0078189
0.0078408
0.00773037
0.00737734
0.00686148
0.00627165
0.00568289
0.00515757
0.00473001
0.00439579
0.00412746
0.00390862
0.00373777
0.00362139
0.0035657
0.00352675
0.00325219
0.00288783
0.00257973
0.00244908
0.00261909
0.00319103
0.00402894
0.00159431
0.00315111
0.00371501
0.00409152
0.00418391
0.0043989
0.00487612
0.00563054
0.00660874
0.00768141
0.00867047
0.00938725
0.00967515
0.00949362
0.00895518
0.00832574
0.00793452
0.00768416
0.00740503
0.00694696
0.00631502
0.00560817
0.00493386
0.00436903
0.00393805
0.00362023
0.00337805
0.00318121
0.0030131
0.0028646
0.00272878
0.00259983
0.00248238
0.0023898
0.00233017
0.00232287
0.002355
0.00235495
0.0022584
0.00210015
0.00146816
0.00144236
0.00367391
0.00667553
0.00864542
0.00995476
0.0107634
0.0111096
0.0110598
0.0106902
0.0100814
0.00922093
0.00833242
0.00763729
0.00714453
0.0066502
0.00604994
0.00536748
0.00467635
0.0040497
0.0035514
0.00319021
0.00293477
0.00274866
0.0026058
0.0024919
0.00240087
0.00233132
0.00228498
0.00226683
0.00227437
0.0022963
0.00232971
0.00236362
0.00236681
0.00229212
0.00212275
0.00187027
0.00118382
0.00218838
0.0067839
0.0093699
0.0100591
0.0102783
0.0101407
0.00967387
0.00899637
0.00822244
0.00745817
0.00673543
0.00612006
0.00560238
0.00508585
0.00453047
0.00397963
0.00348237
0.00306834
0.00274569
0.00250159
0.00232829
0.00220801
0.00212763
0.00207985
0.00206049
0.0020657
0.00209008
0.00212898
0.00219005
0.00226852
0.00236069
0.00245924
0.00254785
0.00261164
0.00260226
0.00260793
0.00236035
0.00119834
0.00196085
0.00207987
0.00216566
0.00233627
0.00224538
0.00216016
0.00209
0.0019879
0.00184968
0.00168349
0.00149806
0.00130938
0.00113991
0.0010035
0.000900769
0.000825248
0.000769938
0.000729909
0.000702376
0.000685739
0.000678695
0.000679632
0.000686183
0.000697511
0.000713152
0.00073293
0.0007569
0.000785379
0.000819076
0.000858922
0.000904333
0.000955796
0.00101374
0.00107868
0.00115067
0.00124619
0.00127379
0.00124268
0.00115947
0.00107003
)
;

boundaryField
{
    floor
    {
        type            nutkWallFunction;
        Cmu             0.09;
        kappa           0.41;
        E               9.8;
        value           nonuniform List<scalar> 
29
(
0.000148045
6.15394e-05
7.50547e-05
8.46181e-05
8.43701e-05
8.15103e-05
7.76517e-05
7.2695e-05
6.77274e-05
6.31833e-05
5.91193e-05
5.54952e-05
5.22539e-05
4.93538e-05
4.67344e-05
4.43069e-05
4.19552e-05
3.95126e-05
3.79823e-05
3.42101e-05
3.42101e-05
4.75602e-05
5.64016e-05
6.2854e-05
0.000148045
6.15394e-05
6.56975e-05
0.000127815
0.000181882
)
;
    }
    ceiling
    {
        type            nutkWallFunction;
        Cmu             0.09;
        kappa           0.41;
        E               9.8;
        value           nonuniform List<scalar> 
43
(
0.000228939
0.00024187
0.000251145
0.000269616
0.000259914
0.000250749
0.000243169
0.000232078
0.000216959
0.000198612
0.000177905
0.00015654
0.000137054
0.000121131
0.000108976
9.99376e-05
9.3257e-05
8.83868e-05
8.50185e-05
8.29756e-05
8.21091e-05
8.22244e-05
8.30303e-05
8.44218e-05
8.63386e-05
8.87553e-05
9.1674e-05
9.51274e-05
9.91948e-05
0.000103979
0.0001094
0.000115506
0.000122334
0.000129936
0.000138301
0.000149312
0.000152475
0.000148909
0.000139321
0.000128927
0.000355815
0.000413909
0.000253387
)
;
    }
    sWall
    {
        type            nutkWallFunction;
        Cmu             0.09;
        kappa           0.41;
        E               9.8;
        value           uniform 0.000229004;
    }
    nWall
    {
        type            nutkWallFunction;
        Cmu             0.09;
        kappa           0.41;
        E               9.8;
        value           nonuniform List<scalar> 6(0.000103622 0.000108569 0.000124371 0.000142145 0.00014382 0.000128935);
    }
    sideWalls
    {
        type            empty;
    }
    glass1
    {
        type            nutkWallFunction;
        Cmu             0.09;
        kappa           0.41;
        E               9.8;
        value           nonuniform List<scalar> 9(0.000136891 0.000183782 0.000221414 0.000256568 0.000291671 0.000328217 0.000360286 0.000365789 0.000356279);
    }
    glass2
    {
        type            nutkWallFunction;
        Cmu             0.09;
        kappa           0.41;
        E               9.8;
        value           nonuniform List<scalar> 2(0.000188784 0.000174626);
    }
    sun
    {
        type            nutkWallFunction;
        Cmu             0.09;
        kappa           0.41;
        E               9.8;
        value           nonuniform List<scalar> 
14
(
0.000136765
0.000149257
0.000152027
0.000159192
0.000165874
0.000172181
0.000178445
0.00018417
0.000187999
0.000189298
0.000187512
0.00018229
0.000173495
0.000161596
)
;
    }
    heatsource1
    {
        type            nutkWallFunction;
        Cmu             0.09;
        kappa           0.41;
        E               9.8;
        value           nonuniform List<scalar> 3(7.73224e-05 9.26066e-05 0.000103619);
    }
    heatsource2
    {
        type            nutkWallFunction;
        Cmu             0.09;
        kappa           0.41;
        E               9.8;
        value           nonuniform List<scalar> 4(0.000151955 8.87049e-05 8.87049e-05 0.000155392);
    }
    Table_master
    {
        type            nutkWallFunction;
        Cmu             0.09;
        kappa           0.41;
        E               9.8;
        value           nonuniform List<scalar> 9(0.000103624 9.14868e-05 8.15847e-05 7.34925e-05 6.68275e-05 6.12869e-05 5.6651e-05 5.27812e-05 4.96313e-05);
    }
    Table_slave
    {
        type            nutkWallFunction;
        Cmu             0.09;
        kappa           0.41;
        E               9.8;
        value           nonuniform List<scalar> 9(0.000116274 0.000106049 9.86587e-05 9.2931e-05 8.79598e-05 8.33933e-05 7.89668e-05 7.42979e-05 6.88589e-05);
    }
    inlet
    {
        type            calculated;
        value           uniform 0.000100623;
    }
    outlet
    {
        type            calculated;
        value           nonuniform List<scalar> 2(0.00196085 0.00207987);
    }
}


// ************************************************************************* //
