/*--------------------------------*- C++ -*----------------------------------*\
  =========                 |
  \\      /  F ield         | OpenFOAM: The Open Source CFD Toolbox
   \\    /   O peration     | Website:  https://openfoam.org
    \\  /    A nd           | Version:  6
     \\/     M anipulation  |
\*---------------------------------------------------------------------------*/
FoamFile
{
    version     2.0;
    format      ascii;
    class       surfaceScalarField;
    location    "2200";
    object      phi;
}
// * * * * * * * * * * * * * * * * * * * * * * * * * * * * * * * * * * * * * //

dimensions      [1 0 -1 0 0 0 0];

internalField   nonuniform List<scalar> 
852
(
-0.00303907
0.00309883
-0.00411932
0.00108026
-0.0049221
0.000802783
-0.00553538
0.000613277
-0.00592759
0.000392208
-0.00607517
0.000147582
-0.00595727
-0.0001179
-0.00556323
-0.000394045
-0.00491845
-0.000644779
-0.00408724
-0.000831205
-0.00315953
-0.000927711
-0.0022308
-0.000928733
-0.00138516
-0.000845634
-0.000660199
-0.000724962
-0.000658149
-0.000801207
0.000804887
-0.000455037
-0.00034617
0.000221938
-0.000676974
0.000757447
-0.000535508
0.00111624
-0.000358796
0.00134116
-0.000224916
0.00146326
-0.000122105
0.00152288
-5.96151e-05
0.00155596
-3.30807e-05
0.00157593
-1.99686e-05
0.00158683
-1.09033e-05
0.00159007
-3.23707e-06
0.00158378
6.29443e-06
0.0015592
2.45738e-05
0.0014928
6.64058e-05
0.00134516
0.000147635
0.00110343
0.000241732
0.000806133
0.000297301
0.000811111
-0.0021629
0.00542227
-0.00320709
0.00212445
-0.00402783
0.00162353
-0.00462942
0.00121486
-0.00501397
0.000776767
-0.00516664
0.000300245
-0.00506392
-0.000220621
-0.00470142
-0.000756536
-0.00411668
-0.00122952
-0.00338049
-0.00156739
-0.00257903
-0.00172917
-0.00179231
-0.00171546
-0.00109178
-0.00154616
-0.00055505
-0.00126169
-0.00032908
-0.000884119
4.24553e-05
-0.000371586
4.24041e-05
0.000386892
0.00042857
0.000826749
-0.000786026
0.00109624
-0.000946466
0.00132954
-0.000768802
0.00150812
-0.000537382
0.00161569
-0.00033248
0.00163296
-0.000139376
0.00163722
-6.38724e-05
0.0016424
-3.82674e-05
0.00164673
-2.42936e-05
0.00164955
-1.37231e-05
0.00165088
-4.56431e-06
0.00164982
7.34764e-06
0.00164258
3.18219e-05
0.00159848
0.000110505
0.00141086
0.000335248
0.00109018
0.000562414
0.000693328
0.000694156
0.00151707
-0.00150921
0.00717675
-0.00240627
0.0030215
-0.00312886
0.00234612
-0.0036384
0.0017244
-0.00396664
0.001105
-0.004093
0.000426602
-0.00397398
-0.000339632
-0.00360805
-0.00112247
-0.00305634
-0.00178123
-0.00239862
-0.00222511
-0.00171469
-0.0024131
-0.00106228
-0.00236786
-0.000488763
-0.00211968
-3.15996e-05
-0.00171885
0.000271455
-0.00118717
0.000429829
-0.00052996
0.000472234
0.00161124
-0.00117143
0.00184261
-0.00101739
0.00180209
-0.000905942
0.00179448
-0.000761196
0.0018194
-0.0005623
0.00184264
-0.00035572
0.00170342
0.0016397
0.00160159
0.00157745
0.00156388
0.00155947
0.00156697
0.00159895
0.00170961
0.00140162
0.000643232
0.00103357
0.000930471
0.000584697
0.00114303
0.00212085
-0.00104921
0.00854336
-0.00175666
0.00372896
-0.00222672
0.00281618
-0.00255001
0.00204769
-0.00274782
0.00130281
-0.00277955
0.000458334
-0.00258024
-0.000538943
-0.00217914
-0.00152357
-0.00166842
-0.00229196
-0.00112349
-0.00277004
-0.000602694
-0.0029339
-0.000131161
-0.0028394
0.000277109
-0.00252795
0.000620524
-0.00206227
0.000933972
-0.00150062
0.00130675
-0.00090274
0.00216624
-0.000387252
0.00263193
-0.000455509
0.00220002
-0.000739525
0.00205669
-0.000874052
0.00193409
-0.00078335
0.00182981
-0.000656913
0.00177356
-0.000506049
0.001748
-0.000330158
0.00189064
-0.000142798
0.00198163
-9.11423e-05
0.00205359
-7.21138e-05
0.00210595
-5.25094e-05
0.0021224
-1.65999e-05
0.0020806
4.16441e-05
0.00195577
0.000124672
0.00171544
0.000240179
0.00130293
0.000412354
0.00115136
0.000794804
0.000825733
0.0012561
0.000333101
0.00163566
0.00247889
-0.000731766
0.0096538
-0.0012656
0.0042628
-0.00134829
0.00289887
-0.00138329
0.0020827
-0.0013645
0.00128401
-0.00118513
0.000278969
-0.000821063
-0.00090301
-0.000385562
-0.00195907
3.33959e-05
-0.00271092
0.000389943
-0.00312659
0.000673078
-0.00321703
0.000888108
-0.00305443
0.00105667
-0.00269651
0.00120405
-0.00220964
0.0013632
-0.00165977
0.00158155
-0.00112109
0.00189922
-0.000704922
0.00202118
-0.000577467
0.00192114
-0.000639483
0.00173056
-0.000683477
0.00157031
-0.0006231
0.00144011
-0.000526707
0.00135242
-0.000418361
0.00132216
-0.000299898
0.00137687
-0.000197506
0.00143898
-0.000153252
0.00150386
-0.000136996
0.00156628
-0.000114933
0.00161315
-6.34641e-05
0.00162297
3.18227e-05
0.00157557
0.000172069
0.00146042
0.000355337
0.00128008
0.000592689
0.00111962
0.000955272
0.000942946
0.00143277
0.000541549
0.00203706
0.000413386
0.00260705
-0.00111831
0.00153149
-0.00158087
0.000462353
-0.00152689
-0.000635105
0.0107193
-0.000994075
0.00462177
-0.000534944
0.00243973
-0.000100774
0.00164853
0.000286713
0.000896527
0.000794692
-0.00022901
0.00132002
-0.00142834
0.00170488
-0.00234392
0.00192723
-0.00293327
0.00200706
-0.00320642
0.00198612
-0.00319609
0.00189357
-0.00296188
0.00176664
-0.00256958
0.00164233
-0.00208533
0.00155192
-0.00156936
0.00151727
-0.00108645
0.00152843
-0.000716072
0.00148333
-0.000532374
0.00134034
-0.000496487
0.001144
-0.00048714
0.000969892
-0.000448991
0.000836989
-0.000393804
0.000752912
-0.000334283
0.000727351
-0.000274336
0.000758919
-0.000229073
0.000820017
-0.00021435
0.000896761
-0.000213739
0.000982776
-0.000200947
0.00107087
-0.000151557
0.00114458
-4.1888e-05
0.00118535
0.000131304
0.00119448
0.000346202
0.00118032
0.000606854
0.00119319
0.000942395
0.00128657
0.00133939
0.00146768
0.00185595
0.0019586
0.00211614
0.00223813
0.00125195
0.00184856
0.000851924
0.000386343
-0.000662528
0.0118594
-0.000515685
0.00447493
0.000716105
0.00120794
0.00163928
0.000725355
0.0024937
4.21034e-05
0.00328371
-0.00101901
0.00376965
-0.00191429
0.00394927
-0.00252353
0.00386722
-0.00285122
0.00358692
-0.00292613
0.00317963
-0.0027888
0.00270873
-0.00249098
0.00223169
-0.00209254
0.00179571
-0.00164936
0.00143025
-0.0012039
0.00114875
-0.00080494
0.000943265
-0.000510591
0.000766084
-0.000355194
0.000579534
-0.000309936
0.000394838
-0.000302444
0.000239674
-0.000293827
0.000126683
-0.000280812
5.98639e-05
-0.000267463
4.22825e-05
-0.000256755
6.87893e-05
-0.00025558
0.000123189
-0.00026875
0.000194507
-0.000285056
0.000281143
-0.000287583
0.00038733
-0.000257744
0.000517631
-0.000172188
0.000651443
-2.50812e-06
0.000779152
0.000218494
0.000918942
0.000467064
0.00111059
0.000750748
0.00140739
0.00104259
0.00188349
0.00137985
0.00262182
0.00137781
0.00321798
0.000655792
0.00328373
0.000786177
0.0037395
0.00276773
0.00962653
0.00354732
0.00369534
0.00416966
0.0005856
0.00517286
-0.000277846
0.00609708
-0.000882116
0.00656157
-0.0014835
0.00658387
-0.00193659
0.00623543
-0.0021751
0.00560544
-0.00222123
0.00479337
-0.00211406
0.00389785
-0.00189327
0.00300157
-0.0015947
0.00217119
-0.00126216
0.00145354
-0.000931711
0.000868576
-0.000618931
0.000424528
-0.000360891
0.000113481
-0.000199543
-0.000106578
-0.000135135
-0.000280573
-0.000135941
-0.000425335
-0.000157681
-0.000540533
-0.000178628
-0.00062449
-0.000196854
-0.000677627
-0.000214326
-0.000701225
-0.000233156
-0.000700687
-0.000256118
-0.000686154
-0.000283282
-0.000663518
-0.000307693
-0.000631328
-0.000319772
-0.000579765
-0.000309306
-0.000487845
-0.000264108
-0.000324551
-0.000165802
-0.000120464
1.44083e-05
0.000108039
0.000238562
0.000390969
0.000467819
0.000735495
0.000698066
0.00119362
0.000921729
0.00167928
0.000892147
0.00181667
0.000518409
0.000979682
0.00162316
0.00501231
0.010219
0.0139104
0.0129768
0.00151914
0.0123558
0.000343213
0.0116043
-0.000130651
0.0105658
-0.000444967
0.00925895
-0.000629742
0.0077959
-0.000712046
0.00627781
-0.000703143
0.00479187
-0.000628119
0.00341683
-0.000518236
0.00220293
-0.000380793
0.00118356
-0.00024279
0.000367534
-0.000115682
-0.000237871
-1.35253e-05
-0.000632284
3.35211e-05
-0.000865705
3.3879e-05
-0.00101408
1.32386e-05
-0.00112934
-2.06784e-05
-0.00122882
-5.82049e-05
-0.00131503
-9.24131e-05
-0.00138853
-0.000123351
-0.00145143
-0.000151429
-0.00150716
-0.000177427
-0.00156161
-0.000201665
-0.00162293
-0.000221962
-0.00169859
-0.00023203
-0.00179597
-0.000222393
-0.00192432
-0.000180963
-0.00209568
-9.27469e-05
-0.00231689
5.54151e-05
-0.00257393
0.000271447
-0.00290955
0.000574185
-0.00342451
0.000982778
-0.00421626
0.00148981
-0.00534012
0.00204559
-0.00690398
0.00245601
-0.00875846
0.00237288
-0.00813171
0.000996415
-0.00279378
0.00437342
0.0033812
0.0033588
0.00135782
0.00365308
-0.00042493
0.00359406
-0.000385944
0.00313899
-0.000174671
0.0024557
-2.87579e-05
0.00165628
9.62802e-05
0.000833961
0.000194199
6.40426e-05
0.000251683
-0.000583659
0.000266909
-0.0010704
0.000243954
-0.00140236
0.000216276
-0.00159947
0.000183581
-0.00170909
0.000143144
-0.00177825
0.000103036
-0.00183242
6.74167e-05
-0.0018883
3.52034e-05
-0.00195217
5.65628e-06
-0.00202174
-2.28388e-05
-0.00209415
-5.09371e-05
-0.00217125
-7.43301e-05
-0.00225612
-9.25601e-05
-0.00235233
-0.000105453
-0.00246275
-0.000111543
-0.00258758
-0.000107196
-0.00272335
-8.6625e-05
-0.00286134
-4.29741e-05
-0.00298657
3.24919e-05
-0.00309103
0.000159872
-0.00317919
0.000359611
-0.00326176
0.000656748
-0.00335079
0.00107181
-0.00345013
0.00158915
-0.00350094
0.0020964
-0.00341241
0.00236748
-0.00298711
0.00194757
-0.00165879
-0.000331901
-0.00436777
-0.000794671
0.00426022
-0.000346557
0.00090971
-0.0010208
0.000249316
-0.00153691
0.000130167
-0.00188693
0.00017535
-0.00214781
0.000232114
-0.00233396
0.000282431
-0.0024636
0.000323847
-0.00254827
0.000336353
-0.00259377
0.000312403
-0.00261195
0.000262135
-0.00260255
0.000206882
-0.00257357
0.000154603
-0.00253942
0.000108991
-0.00251019
7.38059e-05
-0.0024909
4.8128e-05
-0.00248421
2.85131e-05
-0.00249065
1.20988e-05
-0.0025081
-5.3907e-06
-0.00253672
-2.23181e-05
-0.00257556
-3.54894e-05
-0.00262373
-4.43915e-05
-0.00268014
-4.90348e-05
-0.00274297
-4.87172e-05
-0.00280857
-4.15996e-05
-0.00287066
-2.45259e-05
-0.00292044
6.80277e-06
-0.00294281
5.48647e-05
-0.0029146
0.000131657
-0.00280881
0.000253825
-0.00259011
0.000438046
-0.00222986
0.000711567
-0.00173059
0.00108988
-0.0010758
0.00144161
-4.50007e-05
0.00133669
0.00127616
0.000626414
0.00159551
-0.000651251
-0.00267892
-0.00788968
-0.0111483
-0.00683283
-0.00589497
-0.00562644
-0.00548084
-0.0052924
-0.00504885
-0.00475613
-0.00442275
-0.00407727
-0.00375583
-0.0034845
-0.00326816
-0.00310379
-0.00298474
-0.0029006
-0.0028419
-0.00280264
-0.00277966
-0.00277413
-0.00278554
-0.00281019
-0.00284384
-0.00288229
-0.0029206
-0.002952
-0.00296657
-0.00295008
-0.00288583
-0.00274511
-0.00248257
-0.00203619
-0.0013167
-0.000219333
0.00122914
0.00257237
0.0032053
0.00256082
)
;

boundaryField
{
    floor
    {
        type            calculated;
        value           nonuniform List<scalar> 
29
(
0
0
0
0
0
0
0
0
0
0
0
0
0
0
0
0
0
0
0
0
-4.97732e-06
-1.26312e-05
-1.90788e-05
-2.49423e-05
-2.0505e-06
-3.67926e-06
-1.05753e-05
-1.124e-05
-1.01835e-05
)
;
    }
    ceiling
    {
        type            calculated;
        value           nonuniform List<scalar> 
43
(
-5.92942e-05
-5.70678e-05
-5.52818e-05
-2.81585e-05
-1.92092e-05
-1.54356e-05
-1.30876e-05
-1.14338e-05
-1.02868e-05
-9.53496e-06
-9.12912e-06
-9.03855e-06
-9.18891e-06
-9.46085e-06
-9.76604e-06
-1.00626e-05
-1.03338e-05
-1.05683e-05
-1.07525e-05
-1.08733e-05
-1.09239e-05
-1.09081e-05
-1.08421e-05
-1.07332e-05
-1.05868e-05
-1.04071e-05
-1.01969e-05
-9.95768e-06
-9.68883e-06
-9.38807e-06
-9.06153e-06
-8.70936e-06
-8.33141e-06
-7.92565e-06
-7.48743e-06
-6.85552e-06
-6.54694e-06
-6.51537e-06
-6.77322e-06
-6.41647e-06
6.37239e-06
3.93843e-06
-8.43475e-05
)
;
    }
    sWall
    {
        type            calculated;
        value           uniform -0.000279479;
    }
    nWall
    {
        type            calculated;
        value           nonuniform List<scalar> 6(-5.41796e-05 -6.46708e-05 -6.94303e-05 -8.47964e-05 -9.33341e-05 -0.000111684);
    }
    sideWalls
    {
        type            empty;
        value           nonuniform 0();
    }
    glass1
    {
        type            calculated;
        value           nonuniform List<scalar> 9(-5.97605e-05 -0.000160546 -0.00024527 -0.000317399 -0.000378671 -0.000430384 -0.000477601 -0.000534843 -0.000598821);
    }
    glass2
    {
        type            calculated;
        value           nonuniform List<scalar> 2(-0.000293126 -0.000325621);
    }
    sun
    {
        type            calculated;
        value           uniform 0;
    }
    heatsource1
    {
        type            calculated;
        value           nonuniform List<scalar> 3(2.05023e-07 2.04919e-07 2.04938e-07);
    }
    heatsource2
    {
        type            calculated;
        value           nonuniform List<scalar> 4(5.14145e-08 5.15246e-08 0 0);
    }
    Table_master
    {
        type            calculated;
        value           nonuniform List<scalar> 9(-1.53767e-07 -1.53859e-07 -1.53892e-07 -1.53914e-07 -1.53929e-07 -1.53939e-07 -1.53943e-07 -1.53937e-07 -1.53902e-07);
    }
    Table_slave
    {
        type            calculated;
        value           nonuniform List<scalar> 9(1.53625e-07 1.53647e-07 1.53624e-07 1.53606e-07 1.53601e-07 1.53605e-07 1.53625e-07 1.53675e-07 1.53766e-07);
    }
    inlet
    {
        type            calculated;
        value           uniform -0.00623548;
    }
    outlet
    {
        type            calculated;
        value           nonuniform List<scalar> 2(0.00822846 0.00331572);
    }
}


// ************************************************************************* //
