/*--------------------------------*- C++ -*----------------------------------*=========                 |
  \      /  F ield         | OpenFOAM: The Open Source CFD Toolbox
   \    /   O peration     | Website:  https://openfoam.org
    \  /    A nd           | Version:  6
     \/     M anipulation  |
\*---------------------------------------------------------------------------*/
FoamFile
{
    version     2.0;
    format      ascii;
    class       volScalarField;
    location    "2200";
    object      PPD;
}
// * * * * * * * * * * * * * * * * * * * * * * * * * * * * * * * * * * * * * //

dimensions      [0 0 0 0 0 0 0];

internalField   nonuniform List<scalar> 
459
(
59.589210445529865
47.887424920065634
46.48577192460848
45.26364602582373
44.41551613478023
43.94359413224697
43.796243642467516
43.96556092550904
44.49733132692247
45.37087195877159
46.72354051322409
48.61873053867111
51.14825704924216
53.21953998462587
53.42772195236658
56.91253506361297
56.21127620389801
55.951368432804564
56.05534193713677
56.18528940623388
56.34119611721913
56.229706963274616
55.98996194928229
55.95621083171483
56.00250633597172
56.079637867740274
56.18076840151607
56.31200655137059
56.49303899840927
56.778322252472606
57.28824208987914
57.79431417472516
57.9756434269686
58.59670250022594
57.568347991616875
49.02142392273252
48.58296231142897
47.43654854065357
46.78159867524154
46.383193560304576
46.254327154219
46.38227737373432
46.61714457499896
47.053191159143175
47.82969747897965
49.08661288109618
50.9234630599327
52.75120998592257
52.777224689403035
52.777224689403035
52.75120998592257
54.97149193260493
55.71738136570153
55.50934372834846
55.56994489117853
55.22478323111823
55.01027224005384
54.92963477364631
54.959315948263495
55.02017090070468
55.063041762603945
55.07162415409076
55.11024037317271
55.15725506861544
55.21575502472986
55.35276950844236
55.769614204371095
56.782732847710655
57.06825746722952
56.633877806110306
59.88214017580233
49.18379485892457
50.49634441756131
49.98428713094107
49.84824538240179
49.8005350776524
49.876112528758505
49.91704535120792
49.68045674656953
49.297631528522444
49.113361689507855
49.40468700423303
50.34969277110815
52.012969295449075
52.62114408002749
52.75120998592257
52.829255534862526
50.01007489773827
52.198075075214035
52.89058761155423
53.3804421077799
53.90069403009002
54.24894845589904
54.434231682723244
54.86842000978016
55.17139505728615
55.3352988825968
55.39513100628752
55.42429905440475
55.44759159974215
55.37060504135893
55.13361104666474
55.23254405306766
56.17960563473836
55.76547523535158
53.31611861817299
63.92094580039248
49.48921429323295
52.032983392391564
52.58252834394244
53.5306390857517
54.37186327575308
55.04443114710989
54.80324523550331
53.40298524018167
51.425506529850885
49.77513302892355
48.87554362779018
49.00801138843393
50.086600925651545
51.78080342262357
52.777224689403035
51.986042117340766
49.794862205611494
49.70834172561111
51.18255334192073
52.59473236330374
53.74735060987996
54.73248715851591
55.46570885821995
55.72241914761158
55.639806727198405
55.584477736944535
55.61866800688619
55.69332508013143
55.87655141578052
56.216869218259596
56.87443022462757
58.08088606826519
57.74929323401439
56.969401233201964
54.693872511237565
50.931587030791114
68.59406122949228
50.61582261110281
53.504710752549904
55.07598148690852
57.66302967779568
60.593731260030914
61.886623991345516
59.47849654194627
55.62297509329427
51.86905105422543
49.13982208258249
47.654302318084866
47.42672270780106
48.319493227361065
49.84676005342373
51.279896599707655
51.675231865870465
51.5017000510384
51.96367430419668
53.27482396425646
54.88570720020744
56.34524134846298
57.53353342002432
58.42479525798816
58.941936687092095
59.05342476658996
59.08146358275978
59.0374878331034
58.9844591567987
58.87531837960228
58.841497463369485
58.920083918605826
59.02029852083071
58.299218121120894
56.88204101589492
53.69695807349314
53.37503062689092
60.375550168773096
59.65433827599493
50.85552200483109
73.0345709456329
52.9536488896281
56.38929276815862
57.97678614929533
61.68236023685575
63.18357721742612
62.65617774118346
58.37709412445202
54.19213288254702
50.295278866337014
47.43423050132543
45.945904428892696
45.91440203684713
47.09570241520256
49.103183674157606
51.27828309458836
52.962451100319335
54.12553400443758
55.42594997602684
57.07830830087321
58.079223819011794
58.880993381614566
59.52616647450639
60.01553884139222
60.401245542212884
60.73503684185328
60.96584444015291
61.11958491681311
61.17080791391901
61.09396892318282
60.91457407678221
60.65804965110103
60.20960843140943
58.848647236550555
57.01459867852118
53.68460576827548
53.55332706219241
54.43033016442538
54.36436127461282
55.018555658454744
77.18957540434559
58.12831434934995
64.49556511355289
63.119495424827825
62.91480466640523
61.54700334611752
58.71782960667652
54.7733178201231
50.49449943177203
46.79362445391266
44.43650937841456
43.746646283400906
44.63158861314581
46.825303450976
49.87229532305445
53.206117025927085
55.50934372834846
56.80869565831129
57.9756434269686
58.98431133965329
59.83534579214222
60.52968187524444
61.06834994736364
61.45231649789733
61.75898368820738
61.98867654710288
62.11616649266688
62.167138625794145
62.14165427330621
61.98867654710288
61.70790463439322
61.324404199604444
60.88893453080997
60.24330987257659
58.0928907907758
54.997400557181145
53.78615882910734
53.21145338899478
51.84876124585766
56.43798491590522
82.73423911537664
74.50748193103121
72.39691180668518
67.40903306555134
64.35839737252371
60.010769849135286
54.41721017548576
48.64401670037627
43.9330644488386
41.06258269452137
40.31772169791188
41.59470005554846
44.477594768086455
48.517084345011654
53.35020073582377
55.743382948163166
57.509212655247424
58.95848495375089
60.04127069694963
60.88893453080997
61.55458997788193
62.03968269037253
62.42179121534544
62.67608906073486
62.85388067986148
62.95539403658398
63.00612811005435
62.98076296606399
62.87926464325233
62.70149891726954
62.42179121534544
62.01418130567301
61.58015042958924
61.06834994736364
60.50400004956894
59.93832817444254
58.80649712821025
58.190549630397726
54.92754518696425
50.38721682473067
89.42800266638844
85.15168363466938
78.58808558161324
70.09524824513785
59.32545220218932
47.67744779642689
38.761800103925154
33.586365776193816
31.915542462835788
33.16465797661638
36.743408325822244
42.113951599529074
48.53569160196472
53.167497325860154
56.159301695448605
58.57084611495903
60.092726792418794
61.14519791735827
61.93765695179337
62.523553529608336
62.95539403658398
63.05443620256308
62.98382382426776
62.907790132819514
62.75447748627476
62.57086992438144
62.31032900829776
61.95918984752518
61.55301142455697
61.03822754819471
60.419295958979816
59.793174821917866
59.162007177800696
58.39085245172762
57.54509632700834
56.79974964718692
56.30954939706028
56.029104587556255
55.425937490996475
53.80305185667145
98.99800681630053
68.44671989444292
32.09176025530353
8.167006414707743
5.592180073734653
12.600364382846422
24.17163298925628
36.06187202821046
44.40604466852064
51.139676071056826
55.19721304964715
57.9756434269686
59.21261071153273
60.08059970486991
60.72639249078341
61.19757590827243
61.50429251462704
61.641491851061936
61.6835578859442
61.62290235950905
61.51273948196108
61.37050138164201
61.16060899652441
60.90111357169334
60.617102944355864
60.31562996987224
60.03734989970309
59.7482870177187
59.549743298967485
59.40962544342869
59.3214163756803
59.26866228724717
59.22647788037856
59.34099082636475
59.91146319713068
61.78360153413804
65.54663912317962
57.21449522474381
92.69320662765969
26.07679464868238
5.038679105365006
11.923022304378605
22.111706569592485
30.65885040413535
38.07441087743561
44.221279385464726
49.15656122877891
52.86107766244934
55.41763827034244
57.16958955517075
58.41358934648324
59.30442645187114
59.88728364796395
60.281956159445336
60.54239503520066
60.70415830880548
60.784248187744545
60.83148653034626
60.809372639542275
60.794535622721114
60.70816475089168
60.630807165220006
60.54081527108015
60.44661176018793
60.36253341619247
60.31341737016039
60.33115885755984
60.51756197808178
60.91865812926741
61.530926319327065
62.17543037916102
62.72114494402441
63.32870012476375
65.3505722616658
61.927716447177424
59.2932837631143
20.553765862515164
26.019188008801137
21.259981087859742
7.87702600897606
21.559143979473262
30.619546372146928
36.99274859963489
42.26186500939319
46.65125671374788
50.28215031526967
53.23338970188286
55.51035197897915
57.134962374202146
58.27281176628943
58.977529344525955
59.40034921689304
59.60291732968805
59.653700735374024
59.669862566332576
59.651128397153634
59.6390849226587
59.63304906624987
59.64353108836334
59.66859041219456
59.68011631611825
59.73424327113353
59.78321898976532
59.8942941538143
60.03425931039029
60.283925197380256
60.653663462159386
61.29055347172203
62.39718068379202
64.40724469956193
65.89507721384994
66.21777491054075
64.48716876704053
62.27430868661736
60.04836594628685
60.29342772192646
)
;

boundaryField
{
    ".*"
    {
        type            zeroGradient;
    }
}


// ************************************************************************* //
