/*--------------------------------*- C++ -*----------------------------------*=========                 |
  \      /  F ield         | OpenFOAM: The Open Source CFD Toolbox
   \    /   O peration     | Website:  https://openfoam.org
    \  /    A nd           | Version:  6
     \/     M anipulation  |
\*---------------------------------------------------------------------------*/
FoamFile
{
    version     2.0;
    format      ascii;
    class       volScalarField;
    location    "700";
    object      PPD;
}
// * * * * * * * * * * * * * * * * * * * * * * * * * * * * * * * * * * * * * //

dimensions      [0 0 0 0 0 0 0];

internalField   nonuniform List<scalar> 
459
(
58.395974765324155
47.036372699909435
46.18392758803052
44.917825086407404
43.952534552967144
43.25946821624578
42.75959112856712
42.44980290454297
42.408119952884306
42.61536348578915
43.07851313453213
43.970060170943626
45.39922935053476
47.099964506803865
47.31764660514149
55.318069842190866
54.19974589039387
54.121701631448275
54.09568673840291
53.57678926068393
52.98805381317142
52.74792662235323
52.673927174866364
52.64193444758463
52.65974242081491
52.66516023209516
52.68558631035582
52.72970524884714
52.821011627520534
53.018116613128
53.41891224350494
53.8355366798302
53.783506973196005
54.147716461539204
56.99300145304789
47.45048595263825
47.77555336161732
46.51939865299002
45.69681768074302
45.12298987875912
44.74281448341003
44.52326628989538
44.4859907301714
44.62628443097804
44.85756318273682
45.224894642946566
45.76698101153402
46.34331964632559
46.847018304970625
49.38838182178768
52.093186194852336
49.7927786764463
53.723399197989394
53.93959665247491
53.406712771448746
52.879759150725114
52.61984717260956
52.4502100463724
52.396567293235194
52.31587502622705
52.21227203977641
52.09768901795188
52.00744443877744
51.893673562507864
51.811574695959514
51.80442689970766
52.07494840791608
52.69108228778016
52.769091599412626
51.60164471110472
60.34438664228617
46.87825561167791
49.32918334543671
48.447552726479515
48.16036964896695
47.930675256951496
47.834134834100915
47.82838556164788
47.86336057174553
47.931021754410786
47.83618708347873
47.503375285476075
46.972636069695334
46.44307636611991
46.629039689375496
48.88571183877469
52.32710487757219
49.090371328969816
53.25970137493478
54.043656805925
54.09568673840291
54.01215773810848
53.833450495297136
53.68165676841943
53.62741998804594
53.41931214561272
53.23722929079559
53.02915259527968
52.81462808979445
52.54171579568819
52.19587583551484
51.702249426043714
51.528014185438344
52.24912564409091
51.30182178015789
47.97993924426898
65.21757130180467
46.66371629917558
50.440508695516904
50.24608883367303
50.735814278220396
51.18002994209811
51.60456282443773
51.964653418587
52.198653032376654
52.204088555484056
51.63919873011067
50.35856441288491
48.50920356208099
46.703781784903256
45.92562818121468
47.33928063265003
50.78465796475603
53.315263231930224
52.066015799906985
53.46790948149163
54.407858962808284
54.51183475522704
54.53784738349274
54.51183475522704
54.485898689257645
53.95127280978547
53.25067261485892
52.64291097875244
52.177549024486915
51.85637267119702
51.838310952461896
52.204155849206366
53.21937320867165
53.13318823510238
52.56856544976538
49.783959438644494
45.2536367382046
70.34570896211693
47.36636052671579
51.267465018751075
51.690092180803866
53.02224945779025
54.32727596921612
55.588947146802425
56.60558368727229
57.22341982310211
57.069616358994715
55.691528212689995
53.19575035118917
50.019716331506885
46.888437645275765
45.15804628262085
46.07594641306665
49.117610981533595
52.43942060204875
53.14635437402092
54.61588382692197
54.92800285936202
55.05803680221796
55.08404229333039
55.05803680221796
55.05803680221796
55.05803680221796
55.03203086434914
54.81544228518807
54.20609714111634
53.73033003701143
53.42175566135106
53.33609158816814
53.42921234212025
52.91649471251518
51.84227951958922
48.42753128004783
48.01263347307958
54.90199484822583
53.106145661872425
44.2735879710517
74.92240970704668
49.309624169311704
53.01383562986261
52.982831940447305
54.64480961688727
56.785917221091744
59.25083635253678
61.44068337447838
62.4606707342474
61.66487604405727
58.6340369402577
54.99768264619267
50.93491346541604
46.90706409514885
44.56209471336189
45.400938791501574
48.44018040793017
52.21136077695318
54.66790681477604
55.214062672791684
55.50006064985671
55.60404179423411
55.6300354271313
55.6300354271313
55.60404179423411
55.60404179423411
55.57804748931071
55.50006064985671
55.396069440693395
55.214062672791684
54.92800285936202
54.61588382692197
54.11597152591537
52.88782615792439
51.362211827255756
47.93154062553562
48.27177601824171
48.892632051979454
48.450365956987575
48.620094673378716
78.53464478205566
54.23808014085991
60.19561914304691
56.03761311733882
55.64110222993943
57.558877900839335
60.62105713545395
61.696176516210954
63.12065011613641
61.62101031789126
58.64660806966568
55.03696464524481
50.820119635284215
46.57934801035452
44.19080385070592
45.17196817889491
48.58886283005174
52.92652354754341
55.26606732241817
55.81197113746461
56.04583338025453
56.097793638793476
56.14975039094618
56.14975039094618
56.14975039094618
56.14975039094618
56.12377245856122
56.04583338025453
55.88993242877389
55.656028377253335
55.318069842190866
54.90199484822583
54.45988564474931
53.96098836806297
51.96354667737534
48.80287510565097
47.90916147362604
47.20983981935924
45.608780056267676
50.76887655551376
83.92340171267044
72.61809242042776
70.75207645744932
63.66976519402955
60.41351293326159
59.48042794924452
59.595486309153735
59.89547115638113
59.630005979918074
58.72082605625014
56.62128015985054
53.416156702605356
49.564776920367834
45.531555742309266
43.63094437186006
45.42309802131215
49.69776266076407
54.79520275678924
55.91591795947576
56.3575406095341
56.513342225622345
56.5912290132196
56.643148147316715
56.66910606462611
56.6950628676873
56.6950628676873
56.66910606462611
56.5912290132196
56.43544599378716
56.22767875594112
55.91591795947576
55.47406376428761
55.00602449042964
54.58987192999992
54.19974589039387
53.693460880856485
52.30477817450774
51.70319785744021
48.33645873904147
43.82315557462189
90.21201215465526
85.49227257945323
78.60198202088229
71.52860408662427
66.0929642638059
62.55787481024437
60.46682542090522
59.3174313769907
58.2699003323141
56.02845430668722
53.15030366188326
50.04041323969967
46.933692186369676
43.725685866534846
43.20883865713256
46.543409627632585
52.16985916575018
55.60404179423411
56.48737784995725
56.82482979046899
56.98051106515162
57.05833505218433
57.13614754885743
57.10902130599748
56.75947989661743
56.36739471118021
55.93265053688421
55.458348818132976
54.940247686647695
54.408629150321794
53.824409892563466
53.21238003705277
52.69612275630216
52.143582683458455
51.42980411005454
50.816452087830754
50.32797468002479
49.94002105426401
49.224289308909476
47.52404559656704
85.85048069398482
5.032190491272573
18.180249845674396
32.08825154282984
39.19937901783144
42.237299266402225
43.072134396887094
43.5193347242495
43.61872948360763
43.496019799783696
43.18607389890379
41.982133380966964
44.25673660262455
50.2542530652936
54.771949267799236
56.383510069877815
57.032394985424645
57.31766371174525
57.13996160664537
56.711924115466644
56.30175336382902
55.917083718854045
55.492454473340786
55.04817137654056
54.616644543218726
54.16267493135522
53.76444241297133
53.42607096338353
53.201566836984
53.09987290884819
53.091499743141654
53.13589594495498
53.1864924234522
53.34614277297407
53.85417112928158
55.64417055143243
62.07880602384115
52.38990582947176
61.826517375428324
5.0019562857501825
14.559280961402536
25.248548975963544
31.843205713876472
35.106097913515924
36.49941890094132
37.506011033716334
38.66102544281324
40.009282309156944
41.527575423260075
41.63408549561263
47.92264764834369
54.719928656863225
56.10679371954132
55.720338737489875
56.0248530210217
55.90081754778685
55.5998773757381
55.317161208649296
55.0464001948129
54.833580689926556
54.61883402217017
54.44784493575652
54.2909455854534
54.14987990988879
54.0335403772282
53.99135966523967
54.03489098026899
54.234094216215965
54.64816169377155
55.343588647598466
56.10572496489733
56.771728732985196
57.58515591963301
61.2360631469349
54.847497783115465
60.13417294706011
17.85412175401541
21.058128335006728
17.951393527374464
8.131042380798306
19.899819596769547
31.1894336523885
37.46385955562615
36.639065519220935
35.1094480498503
34.32070979537214
34.20315056499574
34.42146101398181
34.599346695616504
34.75335954591482
46.442399983918904
50.21345791047817
51.1657825500778
51.14263724468237
51.18223048099079
51.19471305233344
51.18048875618647
51.21142884604663
51.20601922473065
51.254453562981745
51.308779309130145
51.43169659375061
51.57679219442278
51.786412212373115
52.084471107502765
52.50867215983307
53.09010938269696
53.915228313961606
55.1717243508127
57.32655214160159
59.927269295866594
60.261554660904544
60.5440657316566
55.29976256617471
55.038686999198305
49.84659444831681
)
;

boundaryField
{
    ".*"
    {
        type            zeroGradient;
    }
}


// ************************************************************************* //
