// -*- C++ -*-
// File generated by PyFoam - sorry for the ugliness

FoamFile
{
 version 2.0;
 format ascii;
 class volScalarField;
 location "700";
 object T;
}

dimensions [ 0 0 0 1 0 0 0 ];

internalField nonuniform List<scalar> 459
(
  302.617
  302.312
  302.302
  302.3
  302.298
  302.297
  302.295
  302.292
  302.29
  302.287
  302.281
  302.274
  302.265
  302.256
  302.251
  302.365
  302.322
  302.319
  302.318
  302.317
  302.317
  302.317
  302.317
  302.316
  302.316
  302.315
  302.314
  302.313
  302.312
  302.311
  302.309
  302.308
  302.306
  302.32
  302.838
  302.344
  302.322
  302.326
  302.33
  302.334
  302.337
  302.338
  302.337
  302.333
  302.322
  302.304
  302.281
  302.258
  302.241
  302.237
  302.241
  302.326
  302.316
  302.312
  302.31
  302.307
  302.304
  302.299
  302.295
  302.29
  302.285
  302.28
  302.276
  302.271
  302.267
  302.264
  302.263
  302.264
  302.267
  302.299
  303.063
  302.389
  302.349
  302.361
  302.377
  302.39
  302.402
  302.411
  302.414
  302.41
  302.393
  302.361
  302.318
  302.274
  302.244
  302.238
  302.25
  302.309
  302.312
  302.316
  302.318
  302.317
  302.314
  302.307
  302.3
  302.292
  302.285
  302.277
  302.27
  302.263
  302.256
  302.251
  302.248
  302.247
  302.25
  302.289
  303.282
  302.45
  302.377
  302.395
  302.422
  302.449
  302.474
  302.494
  302.505
  302.503
  302.48
  302.432
  302.364
  302.294
  302.244
  302.236
  302.256
  302.288
  302.302
  302.319
  302.33
  302.334
  302.335
  302.334
  302.333
  302.331
  302.33
  302.328
  302.326
  302.322
  302.318
  302.313
  302.306
  302.281
  302.26
  302.249
  302.288
  303.487
  302.529
  302.407
  302.419
  302.454
  302.492
  302.531
  302.565
  302.589
  302.593
  302.567
  302.504
  302.412
  302.312
  302.242
  302.231
  302.259
  302.294
  302.319
  302.338
  302.35
  302.355
  302.356
  302.355
  302.355
  302.355
  302.354
  302.352
  302.348
  302.343
  302.336
  302.327
  302.316
  302.297
  302.272
  302.254
  302.278
  302.349
  302.377
  302.387
  303.665
  302.633
  302.462
  302.442
  302.472
  302.512
  302.556
  302.602
  302.642
  302.66
  302.634
  302.558
  302.447
  302.323
  302.237
  302.226
  302.261
  302.306
  302.34
  302.361
  302.372
  302.376
  302.377
  302.377
  302.376
  302.376
  302.375
  302.372
  302.368
  302.361
  302.35
  302.338
  302.324
  302.306
  302.283
  302.262
  302.269
  302.3
  302.31
  302.349
  303.806
  302.807
  302.625
  302.538
  302.521
  302.537
  302.57
  302.612
  302.668
  302.696
  302.665
  302.579
  302.454
  302.318
  302.229
  302.221
  302.265
  302.322
  302.363
  302.384
  302.393
  302.395
  302.397
  302.397
  302.397
  302.397
  302.396
  302.393
  302.387
  302.378
  302.365
  302.349
  302.332
  302.315
  302.294
  302.274
  302.27
  302.279
  302.288
  302.321
  304.038
  303.301
  303.094
  302.908
  302.777
  302.708
  302.686
  302.696
  302.73
  302.727
  302.667
  302.559
  302.423
  302.281
  302.203
  302.215
  302.275
  302.345
  302.388
  302.405
  302.411
  302.414
  302.416
  302.417
  302.418
  302.418
  302.417
  302.414
  302.408
  302.4
  302.388
  302.371
  302.353
  302.337
  302.322
  302.308
  302.308
  302.328
  302.358
  302.535
  304.365
  304.043
  303.732
  303.457
  303.236
  303.075
  302.97
  302.908
  302.848
  302.742
  302.611
  302.469
  302.327
  302.196
  302.161
  302.214
  302.296
  302.376
  302.41
  302.423
  302.429
  302.432
  302.435
  302.437
  302.439
  302.44
  302.44
  302.439
  302.437
  302.436
  302.436
  302.439
  302.445
  302.46
  302.484
  302.52
  302.566
  302.61
  302.64
  302.713
  295.627
  299.549
  301.294
  301.922
  302.177
  302.273
  302.286
  302.279
  302.248
  302.197
  302.132
  302.064
  302.128
  302.242
  302.344
  302.406
  302.431
  302.442
  302.447
  302.45
  302.453
  302.457
  302.46
  302.463
  302.467
  302.47
  302.474
  302.478
  302.483
  302.489
  302.498
  302.512
  302.532
  302.559
  302.588
  302.612
  302.627
  302.661
  296.443
  299.498
  300.765
  301.4
  301.722
  301.87
  301.927
  301.954
  301.968
  301.97
  301.961
  301.958
  302.166
  302.342
  302.407
  302.438
  302.454
  302.461
  302.465
  302.469
  302.472
  302.476
  302.479
  302.483
  302.487
  302.491
  302.495
  302.5
  302.505
  302.511
  302.518
  302.529
  302.543
  302.561
  302.58
  302.594
  302.61
  302.636
  298.463
  298.399
  298.394
  300.298
  301.003
  301.389
  301.661
  301.747
  301.788
  301.81
  301.829
  301.847
  301.864
  301.905
  302.336
  302.452
  302.47
  302.485
  302.492
  302.497
  302.5
  302.504
  302.506
  302.509
  302.511
  302.514
  302.516
  302.518
  302.52
  302.522
  302.524
  302.527
  302.53
  302.536
  302.543
  302.556
  302.567
  302.571
  302.623
  302.728
)
;

boundaryField
{
  floor
  {
    type wallHeatTransfer;
    Tinf uniform 305.2;
    alphaWall uniform 0.24;
    value nonuniform List<scalar> 29
(
  302.577
  302.913
  302.807
  302.817
  302.832
  302.848
  302.864
  302.88
  302.896
  302.912
  302.926
  302.94
  302.953
  302.966
  302.978
  302.99
  303.003
  303.018
  303.026
  303.066
  303.066
  302.935
  302.862
  302.821
  302.577
  302.913
  302.743
  302.671
  302.605
)
;
  }
  ceiling
  {
    type wallHeatTransfer;
    Tinf uniform 303.2;
    alphaWall uniform 0.24;
    value nonuniform List<scalar> 43
(
  298.756
  298.683
  298.667
  300.456
  301.129
  301.499
  301.762
  301.848
  301.894
  301.923
  301.948
  301.972
  301.997
  302.044
  302.449
  302.551
  302.563
  302.578
  302.586
  302.591
  302.595
  302.598
  302.6
  302.602
  302.604
  302.605
  302.605
  302.605
  302.605
  302.604
  302.603
  302.603
  302.603
  302.605
  302.608
  302.617
  302.625
  302.633
  302.683
  302.773
  304.311
  304.01
  296.81
)
;
  }
  sWall
  {
    type wallHeatTransfer;
    Tinf uniform 315.2;
    alphaWall uniform 0.36;
    value uniform 299.973;
  }
  nWall
  {
    type wallHeatTransfer;
    Tinf uniform 307.2;
    alphaWall uniform 0.36;
    value nonuniform List<scalar> 6
(
  303.232
  303.175
  303.096
  303.279
  303.24
  303.34
)
;
  }
  sideWalls
  {
    type empty;
  }
  glass1
  {
    type wallHeatTransfer;
    Tinf uniform 315.2;
    alphaWall uniform 4.3;
    value nonuniform List<scalar> 9
(
  311.816
  311.05
  310.534
  310.115
  309.763
  309.453
  309.184
  309.23
  309.449
)
;
  }
  glass2
  {
    type wallHeatTransfer;
    Tinf uniform 307.2;
    alphaWall uniform 4.3;
    value nonuniform List<scalar> 2
(
  305.375
  305.507
)
;
  }
  sun
  {
    type wallHeatTransfer;
    Tinf uniform 305.2;
    alphaWall uniform 0.24;
    value nonuniform List<scalar> 14
(
  302.95
  302.669
  302.66
  302.65
  302.641
  302.633
  302.626
  302.619
  302.612
  302.605
  302.598
  302.59
  302.583
  302.578
)
;
  }
  heatsource1
  {
    type fixedGradient;
    gradient uniform 0;
  }
  heatsource2
  {
    type fixedGradient;
    gradient uniform 0;
  }
  Table_master
  {
    type zeroGradient;
  }
  Table_slave
  {
    type zeroGradient;
  }
  inlet
  {
    type fixedValue;
    value uniform 290.15;
  }
  outlet
  {
    type zeroGradient;
  }
} 	// ************************************************************************* //

