/*--------------------------------*- C++ -*----------------------------------*\
  =========                 |
  \\      /  F ield         | OpenFOAM: The Open Source CFD Toolbox
   \\    /   O peration     | Website:  https://openfoam.org
    \\  /    A nd           | Version:  6
     \\/     M anipulation  |
\*---------------------------------------------------------------------------*/
FoamFile
{
    version     2.0;
    format      ascii;
    class       volScalarField;
    location    "1000";
    object      epsilon;
}
// * * * * * * * * * * * * * * * * * * * * * * * * * * * * * * * * * * * * * //

dimensions      [0 2 -3 0 0 0 0];

internalField   nonuniform List<scalar> 
459
(
0.000479001
0.000622931
0.000651587
0.000750075
0.000850452
0.000952146
0.00105893
0.00117419
0.00126372
0.00130942
0.00129453
0.00121084
0.00106633
0.000889145
0.000719358
4.34422e-05
7.88412e-05
0.000106982
0.000100863
8.90653e-05
7.6301e-05
6.31055e-05
5.18444e-05
4.28621e-05
3.57811e-05
3.01729e-05
2.57096e-05
2.21201e-05
1.91731e-05
1.66856e-05
1.44916e-05
1.24333e-05
1.15557e-05
9.12125e-06
0.00124733
0.00181129
0.000591041
0.000569061
0.000597407
0.000641332
0.000703152
0.000786085
0.000867433
0.000924457
0.000936136
0.000891384
0.000794144
0.000668533
0.000587116
0.000754065
0.000166237
5.77872e-05
0.000132714
0.000132604
0.000116247
9.63009e-05
7.8999e-05
6.94463e-05
5.63798e-05
4.50485e-05
3.60397e-05
2.90371e-05
2.36306e-05
1.946e-05
1.6239e-05
1.38885e-05
1.24958e-05
1.19926e-05
3.66227e-05
2.36309e-05
0.00230355
0.00450899
0.000763046
0.000552503
0.000577146
0.000645967
0.000745154
0.000870935
0.000992396
0.00107571
0.00109923
0.00105613
0.000955128
0.000816614
0.000693299
0.000621644
0.000694836
0.000467356
0.000306938
0.000218029
0.00016109
0.000123123
0.000101366
0.000180533
0.000125371
9.03703e-05
6.74704e-05
5.19839e-05
4.11816e-05
3.34487e-05
2.78199e-05
2.37446e-05
1.8231e-05
1.5683e-05
7.22694e-05
3.89673e-05
0.00375649
0.00936464
0.00126108
0.000580793
0.000579095
0.000677295
0.000830981
0.00102619
0.00119217
0.00128798
0.00130453
0.0012448
0.00112295
0.000953221
0.000790432
0.000669342
0.000639538
0.00122441
0.000670071
0.0003866
0.000250469
0.000176018
0.000131898
0.000112247
0.000255208
0.00019542
0.000160251
0.000137057
0.000119051
0.000103081
8.90935e-05
7.56832e-05
6.16667e-05
3.66665e-05
2.51084e-05
0.000129185
5.32645e-05
0.00575066
0.0165638
0.00255274
0.0007458
0.000633449
0.00075901
0.00102439
0.00132649
0.00151771
0.00159429
0.00157692
0.00147992
0.00131444
0.00110066
0.000875273
0.000672878
0.000521134
0.000450302
0.000352388
0.000266059
0.000200169
0.000153161
0.00012105
0.000102038
0.000100519
9.54328e-05
9.01206e-05
8.45345e-05
7.79928e-05
7.02359e-05
6.25149e-05
5.53302e-05
4.88105e-05
3.93193e-05
3.10126e-05
8.78217e-05
6.20139e-05
9.79929e-05
0.000165514
0.000232488
0.00850104
0.0243574
0.00571548
0.00155572
0.00106028
0.00117541
0.00165396
0.00195385
0.00205876
0.00204735
0.00196118
0.00180613
0.00157866
0.00129439
0.000991634
0.000716355
0.000506191
0.000372955
0.000287289
0.000222912
0.000172312
0.000135588
0.000111394
9.80317e-05
9.3966e-05
9.39397e-05
9.45419e-05
9.39236e-05
9.07034e-05
8.36542e-05
7.27724e-05
6.16676e-05
5.17888e-05
4.31163e-05
3.82728e-05
6.05886e-05
6.32679e-05
7.57042e-05
0.000309418
0.00026915
0.0115992
0.0289117
0.0114987
0.00499482
0.00347694
0.00324975
0.00327146
0.00313553
0.00293359
0.00272457
0.00250781
0.0022492
0.00192052
0.00153199
0.00112978
0.000772281
0.00050828
0.000343946
0.000249182
0.000188866
0.000146873
0.000119492
0.000104266
9.87655e-05
0.000100542
0.000106109
0.000112643
0.00011871
0.000122855
0.000122627
0.00011333
9.85034e-05
8.45168e-05
7.30967e-05
6.94772e-05
8.31487e-05
0.000111062
0.000191549
0.000450254
0.000419722
0.0122141
0.0306782
0.0173999
0.0123045
0.00946194
0.00741978
0.00586702
0.00480029
0.00409919
0.00362253
0.00323326
0.00282066
0.00232796
0.00177744
0.00123667
0.000777579
0.000466665
0.000288841
0.00019936
0.000152191
0.000123985
0.000108647
0.000102938
0.000104453
0.000111277
0.000121756
0.00013497
0.000150881
0.000169665
0.000190981
0.000212981
0.000223499
0.000233091
0.000258494
0.000313712
0.00049526
0.000978907
0.00198494
0.00577633
0.00150858
0.0112019
0.0184668
0.0149001
0.0113381
0.00879917
0.00713293
0.00609136
0.00545444
0.00502883
0.00463891
0.00415101
0.00349836
0.00269686
0.00188017
0.00116609
0.000612391
0.000342152
0.000218624
0.000159118
0.000128223
0.000111984
0.000105189
0.000105008
0.00010974
0.000118468
0.000130917
0.000147533
0.000169565
0.000199053
0.000238897
0.000293049
0.000366588
0.000467335
0.000621915
0.000849187
0.00115299
0.00148886
0.00176142
0.00195908
0.00116653
0.00416736
0.00718837
0.00842717
0.00871917
0.00856046
0.00804586
0.00719194
0.00604076
0.00471871
0.00336738
0.00206105
0.00121754
0.000702256
0.000406796
0.000263047
0.000194056
0.000158479
0.000138873
0.000128234
0.000123343
0.000122445
0.000124698
0.000129862
0.0001381
0.000149995
0.000166684
0.000190099
0.00022337
0.000271499
0.000341024
0.000439172
0.000575244
0.00075114
0.000943956
0.00109211
0.00111939
0.000966779
0.000612807
0.00388626
0.00824675
0.00844209
0.00696508
0.00614258
0.00525316
0.00420762
0.0031812
0.00227098
0.00152235
0.000956219
0.000605608
0.000408752
0.000306417
0.000256375
0.000229781
0.000211846
0.000196572
0.000183931
0.000173918
0.000166387
0.000161528
0.000159865
0.00016217
0.000169426
0.000182876
0.000204204
0.000235841
0.000281456
0.000345943
0.000435689
0.000556769
0.000708966
0.000882765
0.00101149
0.00111711
0.000833652
0.000636294
0.00272669
0.00324748
0.00366609
0.00455006
0.00406006
0.00353433
0.0031831
0.00277077
0.00229077
0.00179746
0.00133862
0.00094759
0.000648606
0.000447239
0.000322014
0.000245629
0.000198557
0.000169312
0.000151494
0.000141841
0.00013689
0.000135321
0.000136634
0.000140697
0.000147617
0.000157673
0.000171324
0.000189307
0.000212873
0.000244267
0.000284286
0.000335208
0.000399655
0.000481046
0.000582805
0.000742179
0.000788886
0.000730407
0.000592765
0.000464436
)
;

boundaryField
{
    floor
    {
        Cmu             0.09;
        kappa           0.41;
        E               9.8;
        type            epsilonWallFunction;
        value           nonuniform List<scalar> 
29
(
0.000719358
4.34422e-05
7.88412e-05
0.000106982
0.000100863
8.90653e-05
7.6301e-05
6.31055e-05
5.18444e-05
4.28621e-05
3.57811e-05
3.01729e-05
2.57096e-05
2.21201e-05
1.91731e-05
1.66856e-05
1.44916e-05
1.24333e-05
1.15557e-05
9.12125e-06
9.12125e-06
2.36309e-05
3.89673e-05
5.32645e-05
0.000719358
4.34422e-05
5.77872e-05
0.000467356
0.00122441
)
;
    }
    ceiling
    {
        Cmu             0.09;
        kappa           0.41;
        E               9.8;
        type            epsilonWallFunction;
        value           nonuniform List<scalar> 
43
(
0.00272669
0.00324748
0.00366609
0.00455006
0.00406006
0.00353433
0.0031831
0.00277077
0.00229077
0.00179746
0.00133862
0.00094759
0.000648606
0.000447239
0.000322014
0.000245629
0.000198557
0.000169312
0.000151494
0.000141841
0.00013689
0.000135321
0.000136634
0.000140697
0.000147617
0.000157673
0.000171324
0.000189307
0.000212873
0.000244267
0.000284286
0.000335208
0.000399655
0.000481046
0.000582805
0.000742179
0.000788886
0.000730407
0.000592765
0.000464436
0.0112019
0.0184668
0.00388626
)
;
    }
    sWall
    {
        Cmu             0.09;
        kappa           0.41;
        E               9.8;
        type            epsilonWallFunction;
        value           uniform 0.00272669;
    }
    nWall
    {
        Cmu             0.09;
        kappa           0.41;
        E               9.8;
        type            epsilonWallFunction;
        value           nonuniform List<scalar> 6(0.000232488 0.00026915 0.000419722 0.000612807 0.000636294 0.000464436);
    }
    sideWalls
    {
        type            empty;
    }
    glass1
    {
        Cmu             0.09;
        kappa           0.41;
        E               9.8;
        type            epsilonWallFunction;
        value           nonuniform List<scalar> 9(0.000479001 0.00124733 0.00230355 0.00375649 0.00575066 0.00850104 0.0115992 0.0122141 0.0112019);
    }
    glass2
    {
        Cmu             0.09;
        kappa           0.41;
        E               9.8;
        type            epsilonWallFunction;
        value           nonuniform List<scalar> 2(0.00150858 0.00116653);
    }
    sun
    {
        Cmu             0.09;
        kappa           0.41;
        E               9.8;
        type            epsilonWallFunction;
        value           nonuniform List<scalar> 
14
(
0.000479001
0.000622931
0.000651587
0.000750075
0.000850452
0.000952146
0.00105893
0.00117419
0.00126372
0.00130942
0.00129453
0.00121084
0.00106633
0.000889145
)
;
    }
    heatsource1
    {
        Cmu             0.09;
        kappa           0.41;
        E               9.8;
        type            epsilonWallFunction;
        value           nonuniform List<scalar> 3(9.79929e-05 0.000165514 0.000232488);
    }
    heatsource2
    {
        Cmu             0.09;
        kappa           0.41;
        E               9.8;
        type            epsilonWallFunction;
        value           nonuniform List<scalar> 4(0.000754065 0.000166237 0.000166237 0.000694836);
    }
    Table_master
    {
        Cmu             0.09;
        kappa           0.41;
        E               9.8;
        type            epsilonWallFunction;
        value           nonuniform List<scalar> 9(0.000180533 0.000125371 9.03703e-05 6.74704e-05 5.19839e-05 4.11816e-05 3.34487e-05 2.78199e-05 2.37446e-05);
    }
    Table_slave
    {
        Cmu             0.09;
        kappa           0.41;
        E               9.8;
        type            epsilonWallFunction;
        value           nonuniform List<scalar> 9(0.000255208 0.00019542 0.000160251 0.000137057 0.000119051 0.000103081 8.90935e-05 7.56832e-05 6.16667e-05);
    }
    inlet
    {
        type            turbulentMixingLengthDissipationRateInlet;
        mixingLength    0.01;
        phi             phi;
        k               k;
        value           uniform 0.000101881;
    }
    outlet
    {
        type            zeroGradient;
    }
}


// ************************************************************************* //
