// -*- C++ -*-
// File generated by PyFoam - sorry for the ugliness

FoamFile
{
 version 2.0;
 format ascii;
 class volScalarField;
 location "1000";
 object T;
}

dimensions [ 0 0 0 1 0 0 0 ];

internalField nonuniform List<scalar> 459
(
  302.654
  302.37
  302.356
  302.353
  302.35
  302.347
  302.342
  302.338
  302.331
  302.321
  302.31
  302.3
  302.293
  302.289
  302.292
  302.394
  302.371
  302.364
  302.365
  302.368
  302.371
  302.373
  302.376
  302.378
  302.38
  302.383
  302.385
  302.386
  302.388
  302.39
  302.391
  302.393
  302.395
  302.415
  302.843
  302.411
  302.384
  302.386
  302.39
  302.391
  302.39
  302.385
  302.373
  302.353
  302.33
  302.308
  302.291
  302.28
  302.274
  302.269
  302.254
  302.395
  302.36
  302.353
  302.354
  302.358
  302.36
  302.36
  302.359
  302.357
  302.356
  302.355
  302.353
  302.352
  302.351
  302.35
  302.351
  302.355
  302.36
  302.395
  303.041
  302.464
  302.417
  302.426
  302.44
  302.451
  302.456
  302.454
  302.436
  302.403
  302.362
  302.324
  302.295
  302.28
  302.275
  302.275
  302.272
  302.337
  302.339
  302.348
  302.358
  302.367
  302.373
  302.37
  302.367
  302.364
  302.361
  302.357
  302.354
  302.351
  302.348
  302.346
  302.346
  302.346
  302.35
  302.387
  303.24
  302.531
  302.453
  302.466
  302.492
  302.519
  302.538
  302.541
  302.515
  302.462
  302.396
  302.338
  302.298
  302.277
  302.274
  302.279
  302.287
  302.303
  302.318
  302.34
  302.362
  302.38
  302.395
  302.406
  302.415
  302.423
  302.43
  302.436
  302.44
  302.443
  302.445
  302.446
  302.444
  302.409
  302.378
  302.361
  302.389
  303.432
  302.618
  302.499
  302.503
  302.539
  302.582
  302.622
  302.629
  302.589
  302.512
  302.419
  302.344
  302.294
  302.271
  302.27
  302.283
  302.3
  302.322
  302.346
  302.372
  302.398
  302.419
  302.437
  302.45
  302.462
  302.472
  302.48
  302.486
  302.489
  302.488
  302.485
  302.479
  302.469
  302.444
  302.408
  302.377
  302.385
  302.473
  302.513
  302.522
  303.605
  302.731
  302.582
  302.563
  302.595
  302.647
  302.7
  302.694
  302.629
  302.528
  302.421
  302.333
  302.279
  302.258
  302.265
  302.289
  302.319
  302.352
  302.384
  302.416
  302.443
  302.466
  302.484
  302.497
  302.508
  302.516
  302.522
  302.526
  302.526
  302.523
  302.515
  302.504
  302.49
  302.467
  302.434
  302.399
  302.389
  302.423
  302.44
  302.479
  303.765
  302.912
  302.767
  302.73
  302.739
  302.775
  302.785
  302.729
  302.622
  302.493
  302.373
  302.286
  302.241
  302.237
  302.262
  302.304
  302.351
  302.396
  302.436
  302.469
  302.495
  302.516
  302.53
  302.541
  302.549
  302.555
  302.558
  302.559
  302.557
  302.551
  302.54
  302.525
  302.508
  302.486
  302.458
  302.425
  302.408
  302.416
  302.427
  302.459
  303.998
  303.363
  303.206
  303.106
  303.043
  302.975
  302.854
  302.691
  302.515
  302.358
  302.246
  302.188
  302.182
  302.216
  302.274
  302.342
  302.405
  302.458
  302.498
  302.526
  302.546
  302.561
  302.571
  302.578
  302.583
  302.586
  302.586
  302.584
  302.58
  302.574
  302.564
  302.548
  302.532
  302.513
  302.492
  302.47
  302.462
  302.481
  302.507
  302.66
  304.332
  304.033
  303.73
  303.44
  303.167
  302.885
  302.576
  302.309
  302.123
  302.026
  302.009
  302.053
  302.137
  302.233
  302.329
  302.422
  302.484
  302.526
  302.554
  302.574
  302.588
  302.597
  302.603
  302.607
  302.609
  302.61
  302.609
  302.607
  302.604
  302.601
  302.599
  302.6
  302.604
  302.613
  302.633
  302.663
  302.705
  302.746
  302.771
  302.835
  293.641
  296.086
  297.865
  298.928
  299.78
  300.475
  301.028
  301.462
  301.795
  302.05
  302.253
  302.376
  302.46
  302.52
  302.559
  302.584
  302.601
  302.613
  302.621
  302.626
  302.629
  302.631
  302.632
  302.633
  302.634
  302.635
  302.636
  302.638
  302.641
  302.644
  302.651
  302.662
  302.68
  302.705
  302.734
  302.761
  302.78
  302.799
  294.828
  297.304
  299.295
  300.236
  300.851
  301.315
  301.674
  301.946
  302.155
  302.314
  302.43
  302.507
  302.557
  302.591
  302.612
  302.626
  302.635
  302.641
  302.645
  302.647
  302.649
  302.651
  302.652
  302.653
  302.655
  302.656
  302.658
  302.66
  302.663
  302.666
  302.672
  302.68
  302.693
  302.711
  302.731
  302.752
  302.748
  302.78
  298.176
  298.101
  298.095
  300.319
  301.235
  301.644
  301.9
  302.095
  302.248
  302.367
  302.46
  302.531
  302.582
  302.618
  302.642
  302.657
  302.667
  302.673
  302.677
  302.679
  302.68
  302.681
  302.681
  302.681
  302.681
  302.681
  302.681
  302.681
  302.681
  302.681
  302.682
  302.683
  302.685
  302.689
  302.695
  302.709
  302.72
  302.727
  302.73
  302.768
)
;

boundaryField
{
  floor
  {
    type wallHeatTransfer;
    Tinf uniform 305.2;
    alphaWall uniform 0.24;
    value nonuniform List<scalar> 29
(
  302.563
  302.909
  302.824
  302.787
  302.794
  302.809
  302.828
  302.85
  302.874
  302.897
  302.92
  302.942
  302.963
  302.983
  303.003
  303.022
  303.042
  303.063
  303.075
  303.122
  303.122
  302.982
  302.916
  302.881
  302.563
  302.909
  302.878
  302.635
  302.538
)
;
  }
  ceiling
  {
    type wallHeatTransfer;
    Tinf uniform 303.2;
    alphaWall uniform 0.24;
    value nonuniform List<scalar> 43
(
  298.502
  298.417
  298.401
  300.483
  301.351
  301.739
  301.982
  302.167
  302.313
  302.428
  302.519
  302.589
  302.642
  302.679
  302.705
  302.724
  302.736
  302.744
  302.749
  302.752
  302.753
  302.754
  302.754
  302.754
  302.753
  302.752
  302.75
  302.749
  302.747
  302.745
  302.743
  302.742
  302.741
  302.742
  302.745
  302.754
  302.763
  302.771
  302.776
  302.813
  304.282
  304
  295.317
)
;
  }
  sWall
  {
    type wallHeatTransfer;
    Tinf uniform 315.2;
    alphaWall uniform 0.36;
    value uniform 299.788;
  }
  nWall
  {
    type wallHeatTransfer;
    Tinf uniform 307.2;
    alphaWall uniform 0.36;
    value nonuniform List<scalar> 6
(
  303.341
  303.279
  303.182
  303.412
  303.39
  303.428
)
;
  }
  sideWalls
  {
    type empty;
  }
  glass1
  {
    type wallHeatTransfer;
    Tinf uniform 315.2;
    alphaWall uniform 4.3;
    value nonuniform List<scalar> 9
(
  311.174
  310.466
  310.025
  309.691
  309.416
  309.17
  308.995
  309.08
  309.333
)
;
  }
  glass2
  {
    type wallHeatTransfer;
    Tinf uniform 307.2;
    alphaWall uniform 4.3;
    value nonuniform List<scalar> 2
(
  305.387
  305.534
)
;
  }
  sun
  {
    type wallHeatTransfer;
    Tinf uniform 305.2;
    alphaWall uniform 0.24;
    value nonuniform List<scalar> 14
(
  302.917
  302.644
  302.628
  302.616
  302.605
  302.594
  302.584
  302.573
  302.562
  302.551
  302.542
  302.536
  302.538
  302.546
)
;
  }
  heatsource1
  {
    type fixedGradient;
    gradient uniform 0;
  }
  heatsource2
  {
    type fixedGradient;
    gradient uniform 0;
  }
  Table_master
  {
    type zeroGradient;
  }
  Table_slave
  {
    type zeroGradient;
  }
  inlet
  {
    type fixedValue;
    value uniform 290.15;
  }
  outlet
  {
    type zeroGradient;
  }
} 	// ************************************************************************* //

