/*--------------------------------*- C++ -*----------------------------------*\
  =========                 |
  \\      /  F ield         | OpenFOAM: The Open Source CFD Toolbox
   \\    /   O peration     | Website:  https://openfoam.org
    \\  /    A nd           | Version:  6
     \\/     M anipulation  |
\*---------------------------------------------------------------------------*/
FoamFile
{
    version     2.0;
    format      ascii;
    class       volScalarField;
    location    "1100";
    object      alphat;
}
// * * * * * * * * * * * * * * * * * * * * * * * * * * * * * * * * * * * * * //

dimensions      [1 -1 -1 0 0 0 0];

internalField   nonuniform List<scalar> 
459
(
0.0013612
0.0014959
0.00153041
0.00160773
0.00168077
0.00175124
0.00182355
0.00188307
0.0019189
0.00192389
0.00189296
0.00182207
0.00170603
0.00153593
0.00132197
0.000624138
0.000745157
0.000849316
0.000868512
0.00084822
0.000814276
0.000763532
0.000711418
0.000664085
0.000622296
0.000585512
0.000553034
0.000524157
0.000498426
0.000474866
0.000452313
0.000429168
0.000412207
0.00037568
0.0018335
0.00465185
0.00452775
0.0052878
0.00604727
0.00677705
0.00734552
0.00782988
0.00824775
0.0085621
0.00873967
0.00874867
0.00854224
0.00800617
0.00656767
0.00145266
0.000980871
0.000640792
0.00143567
0.00207125
0.0025592
0.00284374
0.00283611
0.0021716
0.0018401
0.00161146
0.00143991
0.00130594
0.00119839
0.00110974
0.00102671
0.000944451
0.000869805
0.00080562
0.000942827
0.000482197
0.00222035
0.00634224
0.00565957
0.00695721
0.00762206
0.00812252
0.00850549
0.00887583
0.00926897
0.00965541
0.00999145
0.0102279
0.0102942
0.0100799
0.00928882
0.00694694
0.00153601
0.0011668
0.00182013
0.00248817
0.00313706
0.00359948
0.00350825
0.00107838
0.000946582
0.000840356
0.000754783
0.000685316
0.000628361
0.000581285
0.000542571
0.000511689
0.000555222
0.000646897
0.00107692
0.000556915
0.0025865
0.00799574
0.00573663
0.00731667
0.00780693
0.0080084
0.00818643
0.00845886
0.00883251
0.00927051
0.00971768
0.010105
0.0103337
0.010353
0.0100974
0.00912199
0.00560537
0.0017887
0.00221628
0.00294935
0.00376883
0.00448539
0.00494226
0.00462626
0.00121685
0.00110364
0.00102111
0.000956516
0.000900661
0.000851201
0.00080341
0.00075358
0.000696656
0.000649937
0.000672803
0.00125824
0.000614284
0.00295739
0.0100937
0.00631557
0.00717161
0.00772413
0.00776127
0.00780438
0.00802726
0.00838916
0.00885937
0.00936126
0.00978436
0.010031
0.0100705
0.00992897
0.00955962
0.00868906
0.00740966
0.00702309
0.00700477
0.00709661
0.0071591
0.00710943
0.00678468
0.00561136
0.00502692
0.00467485
0.00440277
0.00412612
0.00374177
0.0032691
0.00272445
0.00213846
0.00156987
0.00116357
0.00124329
0.000806156
0.000741099
0.000887175
0.000994828
0.00334994
0.0123879
0.00856585
0.00743784
0.00785053
0.00781781
0.00783159
0.00794967
0.00823861
0.00870793
0.00925344
0.00971197
0.00994441
0.0099121
0.00970153
0.00946211
0.00928668
0.00917832
0.00918395
0.00915766
0.00902197
0.00878054
0.00845115
0.00802232
0.0074323
0.00692076
0.00648724
0.00608911
0.00569239
0.00524321
0.00470238
0.0040598
0.00332366
0.00254762
0.00189639
0.00143713
0.00110043
0.000959826
0.00138092
0.00104457
0.00369651
0.0139324
0.0117099
0.00952501
0.00900721
0.00850625
0.00813788
0.00806856
0.00833433
0.0088653
0.00948669
0.00997804
0.0101719
0.0100408
0.00973831
0.0095419
0.00965496
0.00995996
0.0101519
0.0100786
0.00976704
0.00930497
0.00875927
0.00816586
0.00755266
0.00699701
0.00650522
0.00605939
0.00565155
0.00528248
0.00493418
0.00445975
0.00385319
0.00315846
0.00252687
0.00198069
0.00160459
0.0015245
0.00158592
0.00121104
0.00375296
0.012035
0.0109457
0.00994326
0.00900705
0.00825167
0.00791245
0.00805296
0.00860292
0.00938167
0.0101299
0.010596
0.0106443
0.0103266
0.00992555
0.00982381
0.0101166
0.0104123
0.0103559
0.00998775
0.0093987
0.00868162
0.00791297
0.00716251
0.00649331
0.00593612
0.00547537
0.00509302
0.00478614
0.00456144
0.00442273
0.00430679
0.0039602
0.00350807
0.00313564
0.00297603
0.00316252
0.00380827
0.00474696
0.00185765
0.00364398
0.00429446
0.00469629
0.00482992
0.00516556
0.00587323
0.00693199
0.00823085
0.0095699
0.010696
0.0113645
0.0114424
0.0110103
0.0103671
0.0100693
0.0100287
0.0100383
0.00986122
0.00941186
0.00873114
0.00789204
0.00699693
0.00614818
0.00542531
0.00485555
0.00441591
0.00406756
0.00378201
0.00354122
0.00333168
0.0031423
0.00298153
0.00285869
0.00277846
0.00276009
0.00278687
0.00277532
0.00265313
0.00246284
0.0017088
0.00165573
0.00450778
0.00832396
0.0107036
0.0121909
0.0130238
0.013265
0.0130131
0.0124098
0.0114664
0.0104431
0.0096781
0.00931203
0.00906108
0.00868286
0.00811217
0.00737114
0.00652679
0.00567104
0.00488901
0.00424856
0.00377247
0.00343333
0.0031898
0.00301041
0.00287711
0.00278102
0.0027193
0.00269552
0.00270015
0.00272262
0.00275833
0.00279311
0.00278997
0.00269451
0.002489
0.00218767
0.00137458
0.00263195
0.00865641
0.0114195
0.0120766
0.0121437
0.0117866
0.0110759
0.0101867
0.00928193
0.00843222
0.00774039
0.00725243
0.00685597
0.00639884
0.00584887
0.00523179
0.00459281
0.00399264
0.00348546
0.00309568
0.00281463
0.00262009
0.00249715
0.00242797
0.00240018
0.00240494
0.00243375
0.00248732
0.00256418
0.00266023
0.0027715
0.00288912
0.0029931
0.0030648
0.00304671
0.00304254
0.00276251
0.00139186
0.00232415
0.00246711
0.00257007
0.00274883
0.00261051
0.00249973
0.00240072
0.00226222
0.00208303
0.0018746
0.0016519
0.00144268
0.00127
0.00113825
0.00103964
0.000964103
0.000904351
0.000856725
0.000820471
0.000795912
0.000782798
0.000779978
0.00078601
0.000799167
0.00081782
0.000841523
0.000870239
0.00090432
0.000944619
0.00099137
0.00104468
0.00110504
0.00117307
0.00124941
0.00133406
0.00144541
0.00147713
0.00143989
0.00134254
0.00123795
)
;

boundaryField
{
    floor
    {
        type            compressible::alphatWallFunction;
        Prt             0.85;
        value           nonuniform List<scalar> 
29
(
0.000186834
8.79446e-05
0.000105773
0.000120838
0.000123591
0.000120682
0.000115797
0.000108449
0.000100841
9.38732e-05
8.76708e-05
8.21692e-05
7.72761e-05
7.28956e-05
6.89669e-05
6.53474e-05
6.18614e-05
5.82609e-05
5.56068e-05
4.98428e-05
4.98421e-05
6.64771e-05
7.78643e-05
8.64783e-05
0.000186832
8.79435e-05
9.04206e-05
0.000165528
0.000249373
)
;
    }
    ceiling
    {
        type            compressible::alphatWallFunction;
        Prt             0.85;
        value           nonuniform List<scalar> 
43
(
0.000318819
0.000337081
0.000350167
0.000372914
0.000355506
0.000341472
0.000328865
0.000311126
0.000287996
0.000260813
0.000231399
0.000203362
0.000179877
0.000161715
0.000147964
0.000137328
0.000128845
0.000122037
0.000116824
0.000113277
0.000111378
0.00011097
0.000111844
0.000113749
0.000116443
0.000119855
0.000123975
0.000128842
0.000134571
0.00014118
0.000148673
0.000157103
0.000166541
0.000177058
0.000188635
0.00020374
0.000208018
0.000202995
0.000189793
0.00017549
0.000484171
0.000563038
0.000357746
)
;
    }
    sWall
    {
        type            compressible::alphatWallFunction;
        Prt             0.85;
        value           uniform 0.000317551;
    }
    nWall
    {
        type            compressible::alphatWallFunction;
        Prt             0.85;
        value           nonuniform List<scalar> 6(0.000141319 0.000148302 0.000171414 0.000193804 0.000196146 0.000175145);
    }
    sideWalls
    {
        type            empty;
    }
    glass1
    {
        type            compressible::alphatWallFunction;
        Prt             0.85;
        value           nonuniform List<scalar> 9(0.000187325 0.000249558 0.000299354 0.000345723 0.000392058 0.00044049 0.000482815 0.000489818 0.000476837);
    }
    glass2
    {
        type            compressible::alphatWallFunction;
        Prt             0.85;
        value           nonuniform List<scalar> 2(0.000256507 0.00023705);
    }
    sun
    {
        type            compressible::alphatWallFunction;
        Prt             0.85;
        value           nonuniform List<scalar> 
14
(
0.000192196
0.000210392
0.000215027
0.000225372
0.000235094
0.000244429
0.000253965
0.000261784
0.000266477
0.000267129
0.000263078
0.000253767
0.000238441
0.000215764
)
;
    }
    heatsource1
    {
        type            compressible::alphatWallFunction;
        Prt             0.85;
        value           nonuniform List<scalar> 3(0.000105335 0.000126419 0.000141691);
    }
    heatsource2
    {
        type            compressible::alphatWallFunction;
        Prt             0.85;
        value           nonuniform List<scalar> 4(0.000204744 0.000139724 0.000139723 0.000215956);
    }
    Table_master
    {
        type            compressible::alphatWallFunction;
        Prt             0.85;
        value           nonuniform List<scalar> 9(0.000153409 0.00013487 0.000119708 0.000107329 9.71549e-05 8.87202e-05 8.16775e-05 7.58329e-05 7.11335e-05);
    }
    Table_slave
    {
        type            compressible::alphatWallFunction;
        Prt             0.85;
        value           nonuniform List<scalar> 9(0.000172609 0.000156933 0.000145391 0.00013628 0.000128344 0.000121269 0.000114385 0.000107156 9.8826e-05);
    }
    inlet
    {
        type            fixedValue;
        value           uniform 1.94e-05;
    }
    outlet
    {
        type            zeroGradient;
    }
}


// ************************************************************************* //
