/*--------------------------------*- C++ -*----------------------------------*\
  =========                 |
  \\      /  F ield         | OpenFOAM: The Open Source CFD Toolbox
   \\    /   O peration     | Website:  https://openfoam.org
    \\  /    A nd           | Version:  6
     \\/     M anipulation  |
\*---------------------------------------------------------------------------*/
FoamFile
{
    version     2.0;
    format      ascii;
    class       volScalarField;
    location    "1100";
    object      epsilon;
}
// * * * * * * * * * * * * * * * * * * * * * * * * * * * * * * * * * * * * * //

dimensions      [0 2 -3 0 0 0 0];

internalField   nonuniform List<scalar> 
459
(
0.000566038
0.000749172
0.000802104
0.000929882
0.00106242
0.00120166
0.00135666
0.00149377
0.00158052
0.00159272
0.00151698
0.0013528
0.00111047
0.000810408
0.000516841
5.44809e-05
9.26864e-05
0.000137223
0.000146749
0.000136713
0.000120958
9.97322e-05
8.06793e-05
6.56286e-05
5.40065e-05
4.4988e-05
3.79122e-05
3.22805e-05
2.77583e-05
2.4007e-05
2.07481e-05
1.77249e-05
1.57071e-05
1.18942e-05
0.00138594
0.00191942
0.000707027
0.000693272
0.000737496
0.000810449
0.000916644
0.00103303
0.00112326
0.00115664
0.00111994
0.00101698
0.000865356
0.000686857
0.000546176
0.00068559
0.000211082
5.89662e-05
0.000136659
0.000158146
0.00015173
0.00013478
0.00011688
0.000109346
8.84159e-05
6.95103e-05
5.4608e-05
4.32191e-05
3.45615e-05
2.79433e-05
2.29042e-05
1.91519e-05
1.68029e-05
1.57302e-05
3.55839e-05
2.5148e-05
0.00246617
0.00450759
0.000865475
0.000671655
0.000723741
0.000840519
0.00100468
0.00117388
0.00129467
0.00133603
0.00129569
0.00118308
0.00102326
0.000836895
0.000688384
0.000621955
0.00081056
0.000355726
0.000293989
0.000243543
0.00020152
0.000166649
0.000146175
0.000280982
0.00019004
0.000132976
9.63525e-05
7.21246e-05
5.55974e-05
4.40158e-05
3.57955e-05
3.00259e-05
2.26342e-05
1.89184e-05
6.57854e-05
3.87431e-05
0.00390632
0.00914846
0.00134786
0.00070439
0.000746555
0.000925664
0.00119221
0.00142203
0.00155415
0.00157978
0.00151599
0.00137148
0.00117494
0.000970189
0.00079797
0.000694555
0.000689734
0.00128038
0.000756011
0.000476965
0.000332919
0.000248837
0.000195118
0.000170982
0.000403973
0.000301434
0.000238781
0.000196296
0.000163895
0.000138363
0.000116351
9.60228e-05
7.58684e-05
4.38149e-05
2.85798e-05
0.000111172
5.19967e-05
0.00585082
0.0160991
0.00262798
0.000894571
0.000861138
0.00116425
0.00160022
0.00184966
0.00194098
0.00191675
0.00180287
0.00160868
0.00135682
0.00108663
0.000843303
0.000658764
0.000547053
0.000514046
0.000435777
0.000358592
0.000293311
0.00023922
0.000195172
0.000163478
0.000156903
0.000143987
0.000131108
0.000118437
0.000105651
9.31589e-05
8.10515e-05
6.96503e-05
5.90936e-05
4.5653e-05
3.44237e-05
8.01625e-05
5.73721e-05
9.14131e-05
0.000156905
0.000221244
0.00851895
0.0237772
0.00586704
0.00182933
0.0015287
0.00212955
0.00247924
0.00256577
0.00251985
0.00240162
0.00221023
0.00193615
0.00159412
0.00122947
0.000901333
0.000653278
0.000498378
0.000419981
0.000370378
0.00032349
0.000274738
0.000228367
0.000188357
0.000158128
0.000140815
0.000131191
0.000124209
0.000116856
0.0001078
9.62688e-05
8.32587e-05
7.03679e-05
5.87063e-05
4.82236e-05
4.1813e-05
5.89537e-05
5.98455e-05
7.16605e-05
0.000292602
0.000256011
0.0114655
0.0283239
0.0119142
0.00578271
0.00472936
0.00445555
0.00407046
0.00369501
0.00337637
0.00308834
0.00276641
0.00236461
0.00188966
0.00139743
0.000967346
0.000657591
0.000475273
0.000385507
0.00033556
0.000291697
0.000246662
0.000205032
0.000171358
0.000148324
0.000136665
0.000132945
0.000132259
0.000131802
0.000130054
0.000125338
0.00011406
0.000100929
8.80526e-05
7.68013e-05
7.28832e-05
8.41047e-05
0.00010889
0.00018237
0.000421191
0.000398869
0.0120276
0.0293345
0.0171737
0.0123632
0.00957555
0.00745486
0.00600132
0.00506847
0.00446443
0.00399406
0.00349329
0.00288913
0.00220655
0.00152897
0.000970409
0.00060823
0.000418081
0.000329909
0.000281644
0.000240153
0.000202142
0.000171248
0.000149811
0.000138259
0.000135521
0.000139124
0.000146679
0.000157264
0.00017084
0.000187243
0.000204811
0.000214689
0.00022728
0.000252168
0.000303702
0.000469585
0.00090528
0.00181621
0.00531964
0.00144248
0.0110477
0.0180298
0.0144519
0.0111583
0.00883421
0.00742743
0.00661927
0.00613909
0.0057392
0.00519829
0.00438744
0.00337928
0.00233834
0.00139678
0.000733918
0.000444591
0.000315456
0.00025191
0.000212042
0.000180305
0.000154796
0.000136985
0.000127266
0.000124953
0.000128834
0.000137748
0.00015129
0.000170157
0.000196013
0.000231428
0.000279895
0.000347111
0.000441652
0.000586232
0.000797844
0.00108271
0.00140333
0.00167198
0.00186766
0.00112488
0.00349009
0.00633416
0.00841228
0.00900909
0.00902448
0.00850344
0.00734379
0.00569716
0.00375442
0.00227709
0.00132719
0.00075467
0.000444588
0.000296965
0.000224541
0.000184178
0.000157102
0.00013686
0.000122166
0.000112766
0.000108475
0.000108846
0.000113295
0.000121471
0.000133551
0.000150394
0.000173654
0.000206096
0.000252084
0.000317352
0.000409224
0.000536638
0.000701778
0.000884647
0.00102938
0.00106449
0.000937052
0.000585508
0.00377323
0.00897792
0.0086655
0.0070437
0.00590605
0.00479403
0.00366971
0.00259363
0.00166325
0.00101017
0.000612341
0.000388664
0.000269521
0.000207041
0.000171863
0.000149414
0.000133477
0.000121887
0.000113924
0.000109187
0.000107374
0.000108417
0.000112515
0.000119989
0.000131483
0.000148048
0.000171281
0.000203483
0.00024788
0.000309155
0.000393535
0.00050718
0.000650365
0.000812963
0.000933168
0.00103819
0.000802672
0.000607785
0.00270489
0.00323292
0.00365458
0.0045779
0.00395652
0.00348704
0.00309597
0.00259493
0.00202855
0.00148001
0.0010135
0.000675498
0.000460987
0.000331969
0.000252998
0.000201786
0.000166559
0.000141614
0.000124391
0.000113554
0.000108035
0.000106871
0.00010937
0.000114953
0.00012319
0.000134214
0.000148426
0.000166553
0.000189823
0.000219422
0.000256756
0.00030388
0.000363525
0.000439228
0.000534709
0.000680178
0.000726025
0.000672553
0.000545183
0.000427615
)
;

boundaryField
{
    floor
    {
        Cmu             0.09;
        kappa           0.41;
        E               9.8;
        type            epsilonWallFunction;
        value           nonuniform List<scalar> 
29
(
0.000516841
5.44809e-05
9.26864e-05
0.000137223
0.000146749
0.000136713
0.000120958
9.97322e-05
8.06793e-05
6.56286e-05
5.40065e-05
4.4988e-05
3.79122e-05
3.22805e-05
2.77583e-05
2.4007e-05
2.07481e-05
1.77249e-05
1.57071e-05
1.18942e-05
1.18942e-05
2.5148e-05
3.87431e-05
5.19967e-05
0.000516841
5.44809e-05
5.89662e-05
0.000355726
0.00128038
)
;
    }
    ceiling
    {
        Cmu             0.09;
        kappa           0.41;
        E               9.8;
        type            epsilonWallFunction;
        value           nonuniform List<scalar> 
43
(
0.00270489
0.00323292
0.00365458
0.0045779
0.00395652
0.00348704
0.00309597
0.00259493
0.00202855
0.00148001
0.0010135
0.000675498
0.000460987
0.000331969
0.000252998
0.000201786
0.000166559
0.000141614
0.000124391
0.000113554
0.000108035
0.000106871
0.00010937
0.000114953
0.00012319
0.000134214
0.000148426
0.000166553
0.000189823
0.000219422
0.000256756
0.00030388
0.000363525
0.000439228
0.000534709
0.000680178
0.000726025
0.000672553
0.000545183
0.000427615
0.0110477
0.0180298
0.00377323
)
;
    }
    sWall
    {
        Cmu             0.09;
        kappa           0.41;
        E               9.8;
        type            epsilonWallFunction;
        value           uniform 0.00270489;
    }
    nWall
    {
        Cmu             0.09;
        kappa           0.41;
        E               9.8;
        type            epsilonWallFunction;
        value           nonuniform List<scalar> 6(0.000221244 0.000256011 0.000398869 0.000585508 0.000607785 0.000427615);
    }
    sideWalls
    {
        type            empty;
    }
    glass1
    {
        Cmu             0.09;
        kappa           0.41;
        E               9.8;
        type            epsilonWallFunction;
        value           nonuniform List<scalar> 9(0.000566038 0.00138594 0.00246617 0.00390632 0.00585082 0.00851895 0.0114655 0.0120276 0.0110477);
    }
    glass2
    {
        Cmu             0.09;
        kappa           0.41;
        E               9.8;
        type            epsilonWallFunction;
        value           nonuniform List<scalar> 2(0.00144248 0.00112488);
    }
    sun
    {
        Cmu             0.09;
        kappa           0.41;
        E               9.8;
        type            epsilonWallFunction;
        value           nonuniform List<scalar> 
14
(
0.000566038
0.000749172
0.000802104
0.000929882
0.00106242
0.00120166
0.00135666
0.00149377
0.00158052
0.00159272
0.00151698
0.0013528
0.00111047
0.000810408
)
;
    }
    heatsource1
    {
        Cmu             0.09;
        kappa           0.41;
        E               9.8;
        type            epsilonWallFunction;
        value           nonuniform List<scalar> 3(9.14131e-05 0.000156905 0.000221244);
    }
    heatsource2
    {
        Cmu             0.09;
        kappa           0.41;
        E               9.8;
        type            epsilonWallFunction;
        value           nonuniform List<scalar> 4(0.00068559 0.000211082 0.000211082 0.00081056);
    }
    Table_master
    {
        Cmu             0.09;
        kappa           0.41;
        E               9.8;
        type            epsilonWallFunction;
        value           nonuniform List<scalar> 9(0.000280982 0.00019004 0.000132976 9.63525e-05 7.21246e-05 5.55974e-05 4.40158e-05 3.57955e-05 3.00259e-05);
    }
    Table_slave
    {
        Cmu             0.09;
        kappa           0.41;
        E               9.8;
        type            epsilonWallFunction;
        value           nonuniform List<scalar> 9(0.000403973 0.000301434 0.000238781 0.000196296 0.000163895 0.000138363 0.000116351 9.60228e-05 7.58684e-05);
    }
    inlet
    {
        type            turbulentMixingLengthDissipationRateInlet;
        mixingLength    0.01;
        phi             phi;
        k               k;
        value           uniform 0.000101881;
    }
    outlet
    {
        type            zeroGradient;
    }
}


// ************************************************************************* //
