/*--------------------------------*- C++ -*----------------------------------*=========                 |
  \      /  F ield         | OpenFOAM: The Open Source CFD Toolbox
   \    /   O peration     | Website:  https://openfoam.org
    \  /    A nd           | Version:  6
     \/     M anipulation  |
\*---------------------------------------------------------------------------*/
FoamFile
{
    version     2.0;
    format      ascii;
    class       volScalarField;
    location    "1100";
    object      PMV;
}
// * * * * * * * * * * * * * * * * * * * * * * * * * * * * * * * * * * * * * //

dimensions      [0 0 0 0 0 0 0];

internalField   nonuniform List<scalar> 
459
(
1.6116591853565907
1.3909763633866739
1.3625436804138418
1.3387244763887705
1.3232511415563772
1.3153030368741814
1.315313870694686
1.3219000523397708
1.336239359405023
1.3594805345754943
1.3942293667454009
1.4416897271135694
1.4971047893376597
1.5018833167328793
1.5138289830678606
1.5912112280119426
1.576884271712023
1.5706754302501291
1.5735410860070325
1.577361862660387
1.5816601018716627
1.5806726761019496
1.575473855644054
1.5751998552570854
1.5769177742461655
1.578871660273291
1.5817729994941556
1.5852719602880514
1.589730982829725
1.5961380385849624
1.6071575930953697
1.624156955868074
1.6298857209750124
1.6442063869703103
1.5691799621446765
1.4124413534668454
1.4024804597193616
1.380476879490871
1.3677731730108598
1.3613150490634516
1.3606731088886792
1.364022141805584
1.370834800502528
1.3826773678919455
1.4040068887668147
1.4367954156942229
1.4828193891609753
1.4894588413085499
1.4942376024380322
1.4956712024615402
1.499494071460549
1.5638373532541245
1.5635110188765902
1.5592136000136323
1.5625557349059365
1.5588284158601091
1.5551903479270395
1.5543392587138452
1.5559009389179492
1.558344452622307
1.5604636394722613
1.56238646458177
1.564415363512037
1.5666128426217907
1.5695240996552058
1.5734233882119184
1.582909339851283
1.6035880536931948
1.614130945524084
1.6121966413002675
1.6077688116763373
1.4152818561095104
1.4395795290434792
1.4302040487210295
1.4278963516663026
1.4274629948371962
1.4300176463935819
1.4277452350598292
1.4196830738221742
1.4119931959249556
1.4119100190693517
1.4245102004850996
1.4532883972496928
1.483724138078955
1.4889809572512793
1.4928039893114573
1.4956712024615402
1.4634619218348843
1.4966599182894686
1.505262097423627
1.5151296782984367
1.527431324912939
1.5365765398139961
1.54096689128456
1.5526549297157455
1.5616237526221242
1.5666367400651076
1.5697247952310873
1.5725870554866939
1.574842106178536
1.5756241636703145
1.5733139580771591
1.5763379027777231
1.5950606378130514
1.5907357933007198
1.5500790534235798
1.6818886192289213
1.421514338480522
1.4691417639740738
1.4824196823893179
1.5027648711393864
1.5196381485726704
1.528997209264527
1.5105524279184475
1.4707971249594058
1.4308572321867463
1.4047580771258292
1.3991825349454687
1.4162348262975288
1.449197304509658
1.4822578322155662
1.4880653294984847
1.454906244573196
1.4180785797812503
1.4281629229592687
1.4586539479793823
1.4876411073502385
1.5149503017538188
1.5396789191809588
1.5598519599198204
1.5704544202281918
1.5718176275822464
1.5734219593455394
1.576839942686756
1.581184579324074
1.5875260564986984
1.5969220037929253
1.6109708325817313
1.6350351906550857
1.6283551692152864
1.6130665256279728
1.572364109727106
1.50729015865495
1.7710252710223318
1.4417046112736918
1.49807649238543
1.5335558444992745
1.591682711282067
1.650411445557607
1.64862525904275
1.5700701325702222
1.487341313476321
1.4225483471854847
1.3820950268172092
1.3693621480543308
1.382528669749493
1.4134160568750875
1.4483034321601587
1.4695345214505717
1.4663121288060417
1.4630434549554932
1.4752145526353608
1.5025612660306316
1.5357858238654938
1.5674791336752099
1.5963101694682234
1.6203816295837676
1.6367304016611273
1.6434231750312243
1.6478032392580282
1.6513562380623061
1.6531426293715124
1.654108511355105
1.655013912395562
1.657059327358014
1.6591022085549274
1.644119722181785
1.615469250179902
1.5568581159283323
1.5502427128849752
1.6880183385547742
1.6806961869605155
1.5180485311810596
1.8613726197280691
1.4846414558737637
1.5521554958836692
1.5913100896771992
1.6661611794292497
1.696222375553266
1.6293221250875058
1.54056653340583
1.4564421464672597
1.3874452203819179
1.3466164952100574
1.3372558179490468
1.3563992430203546
1.3967467366653907
1.444561746204506
1.4854691200033938
1.5094221836248682
1.5273466882261368
1.551929029050256
1.5842343584712535
1.6165181676238851
1.6356142028184613
1.652320624752957
1.6656839483269523
1.6766597233889222
1.68524866205117
1.6919284543434308
1.6966994666651933
1.699561965865954
1.699084888327997
1.696222375553266
1.6914513407817378
1.6838172215557765
1.6588110018863509
1.6221769722732542
1.5593286834973905
1.555409439930253
1.5755691744055413
1.5774608383227142
1.5926286583946856
1.952302911210918
1.5809235334542198
1.706167154714972
1.689554474279069
1.6811353902310213
1.6333684533754342
1.5583325073847833
1.4688041251534636
1.3836328996188907
1.3218485091303553
1.2948768671656714
1.305395787221812
1.3458722923857132
1.4081550590530836
1.479492618504429
1.543450068354537
1.5711530438843493
1.595508999257413
1.6184279108925599
1.6399103762515967
1.6594797519343678
1.6766597233889222
1.690497106961239
1.7009931848513564
1.7095800664318428
1.7162582339516321
1.7205510990856332
1.7229359414041907
1.7234129027407232
1.7210280722932212
1.7153042380445327
1.7081489712665179
1.699084888327997
1.6866800826997872
1.6461299856163394
1.5870066319827685
1.5633393585288027
1.5544769090381794
1.531033839749122
1.6149478949192408
2.0859418449786995
1.9050234721656034
1.860588408108015
1.7624193964657962
1.6843655116620824
1.5754406422862028
1.4497188377854944
1.3352856389269212
1.2551579710186371
1.2213166895365395
1.2361621025208616
1.2904771579589793
1.3721262528592535
1.4722256571239571
1.5487047793397484
1.5902561477600192
1.6227247207298725
1.648024925382544
1.6685473030851015
1.6866800826997872
1.701947319462757
1.7148272365757
1.7243668182687206
1.7319977974541971
1.7372437365501472
1.7405819074475777
1.7424893795304497
1.7424893795304497
1.741058779169227
1.7377206254670572
1.7319977974541971
1.7238898616963656
1.7153042380445327
1.703855561297403
1.6914513407817378
1.6795227815642777
1.6606256133223705
1.6494219711360916
1.589968984877109
1.5067419920500724
2.2850457891830342
2.155946257725352
1.9946639028472222
1.8026679533679242
1.5231085527126607
1.2780107760776522
1.1137509472033627
1.036393597183978
1.0403873682246072
1.1087629164231032
1.222229422048507
1.3574943958554884
1.486591515429184
1.55634763828752
1.6184279108925599
1.6566161571579257
1.6814314434492021
1.7000390411339656
1.7148272365757
1.7272285075279685
1.7364938747731087
1.7391713893387353
1.7399477568757815
1.7397596636173485
1.7388152402941317
1.7365668269849952
1.7324582269872468
1.7265775525678027
1.7185783592556965
1.7088567239197212
1.697033321649978
1.6842929657429089
1.671861029689242
1.6567572673110882
1.6405057807947439
1.626710566079449
1.6181783000285122
1.6133626443670235
1.6029984647459483
1.573825605356575
-2.981659415634036
-2.0796090375949468
-1.2414909877592013
-0.4015116571442746
0.21134649041937528
0.6732452414615718
1.0426821540875608
1.2671129996312631
1.4383174115066029
1.541061497995973
1.6047471688565416
1.630884187182401
1.6551989454589002
1.6744265949967423
1.6886803376118988
1.6997596916641025
1.708087123726846
1.7138453938525595
1.7171412955804437
1.7175688594861025
1.7168330050433451
1.714634822331151
1.711366624952368
1.706846508657428
1.7019378025066645
1.6966968228871577
1.6913170406480698
1.686070836419326
1.6818566723469552
1.6783584692172284
1.6762578150786258
1.6743514031977795
1.673708634117774
1.6759749129182033
1.6870512835355185
1.722404386653942
1.7947403910395818
1.6443193132684264
-2.50616275546033
-1.0078132961695805
0.07067143043416788
0.6296235483238007
0.9305685211747142
1.1368369374958127
1.2903214685054651
1.4085325749377755
1.49825775514417
1.5601935905077928
1.603206461638952
1.6340966645603447
1.6566537400492267
1.6730822722944685
1.6845416016744714
1.6934218755550292
1.6997261496698766
1.7035694806833368
1.705630105807457
1.706584723316471
1.7070190333412356
1.7063180870028052
1.7053645583038144
1.7036515134336516
1.7017208064722649
1.7001887250427639
1.6983170099753855
1.6970054388297897
1.697776026639013
1.7005072314500964
1.707059200654611
1.7179439645039762
1.7295160712025288
1.7398496937066625
1.7517456153954565
1.7905016240325096
1.7273506511666
1.681630148823214
-0.7838619653862466
-0.9202470128597906
-0.8041059372413297
0.4553521309977005
0.9585596376977206
1.1638609346811268
1.2899810398584126
1.387710419543425
1.4654512230874257
1.5286089694004878
1.5790038226682828
1.6162028406109108
1.6436943893764255
1.6632916619347011
1.6769802605483843
1.6859516940758967
1.6915781442323188
1.6947352990958782
1.696298865741448
1.696651764124961
1.6966271308948562
1.6964344874453239
1.6956589210398396
1.6957304648627651
1.6954902721535348
1.695478534554353
1.6958167181477515
1.6967342541606387
1.6990871189895256
1.7022531601207846
1.708167595662762
1.7185311294189431
1.7385287401595713
1.7747258967527253
1.8001710084217488
1.8058893644653697
1.7735172700945088
1.734237134339515
1.6939247847058225
1.6988531232608375
)
;

boundaryField
{
    ".*"
    {
        type            zeroGradient;
    }
}


// ************************************************************************* //
