/*--------------------------------*- C++ -*----------------------------------*\
  =========                 |
  \\      /  F ield         | OpenFOAM: The Open Source CFD Toolbox
   \\    /   O peration     | Website:  https://openfoam.org
    \\  /    A nd           | Version:  6
     \\/     M anipulation  |
\*---------------------------------------------------------------------------*/
FoamFile
{
    version     2.0;
    format      ascii;
    class       volScalarField;
    location    "800";
    object      epsilon;
}
// * * * * * * * * * * * * * * * * * * * * * * * * * * * * * * * * * * * * * //

dimensions      [0 2 -3 0 0 0 0];

internalField   nonuniform List<scalar> 
459
(
0.00025572
0.00031289
0.000318509
0.000359864
0.000399816
0.000438328
0.000476537
0.000516242
0.000557089
0.000588884
0.000603796
0.000593007
0.000552384
0.000488912
0.000419796
2.91466e-05
4.90684e-05
5.78456e-05
5.18479e-05
4.52265e-05
3.90863e-05
3.34318e-05
2.86582e-05
2.47615e-05
2.15887e-05
1.89873e-05
1.68473e-05
1.5056e-05
1.35233e-05
1.21687e-05
1.09087e-05
9.64514e-06
9.08792e-06
7.39515e-06
0.000738399
0.00130243
0.000290896
0.000270289
0.000274013
0.000283601
0.000300123
0.000326922
0.000364837
0.000405198
0.000436559
0.000444865
0.000421824
0.000374433
0.00034308
0.000441051
8.14995e-05
4.90232e-05
7.8617e-05
7.18142e-05
6.02019e-05
4.84877e-05
3.90201e-05
3.33768e-05
2.75062e-05
2.25994e-05
1.8674e-05
1.55568e-05
1.31055e-05
1.11658e-05
9.6382e-06
8.55175e-06
8.10705e-06
8.29768e-06
2.96765e-05
1.84497e-05
0.00147457
0.00369236
0.000390864
0.000255006
0.000252623
0.000267382
0.00029296
0.000331472
0.000382794
0.000437372
0.000477465
0.000486619
0.000461946
0.000415698
0.000372627
0.000353499
0.000295421
0.000253538
0.000160927
0.000108976
7.73209e-05
5.75996e-05
4.62786e-05
7.70719e-05
5.80684e-05
4.48609e-05
3.55438e-05
2.88329e-05
2.38924e-05
2.01878e-05
1.73817e-05
1.52724e-05
1.20925e-05
1.08026e-05
5.98595e-05
3.05984e-05
0.00259661
0.00825774
0.000704113
0.00025661
0.000239257
0.000259111
0.000292995
0.000345081
0.000418568
0.000493931
0.000539708
0.000538354
0.000497582
0.000439333
0.000383918
0.000341852
0.000339676
0.000531481
0.000308852
0.000171726
0.00010669
7.32986e-05
5.50458e-05
4.73809e-05
0.000106858
9.12902e-05
8.26401e-05
7.67916e-05
7.11637e-05
6.45756e-05
5.82195e-05
5.14627e-05
4.36331e-05
2.69934e-05
1.86433e-05
0.000110376
4.27824e-05
0.00424903
0.0153239
0.00157221
0.000302011
0.000228916
0.000245915
0.000288164
0.000366809
0.000492786
0.000603917
0.000652688
0.000630006
0.000559645
0.000474983
0.000389947
0.000303499
0.000225361
0.000185028
0.000137211
9.91394e-05
7.33011e-05
5.76232e-05
4.90141e-05
4.57821e-05
4.91567e-05
5.17386e-05
5.35352e-05
5.38622e-05
5.20614e-05
4.80349e-05
4.36211e-05
3.94859e-05
3.57792e-05
2.97108e-05
2.36833e-05
7.58675e-05
5.05889e-05
9.48474e-05
0.000159694
0.000219552
0.00663785
0.0230699
0.00397883
0.000614823
0.000301681
0.000269401
0.000300105
0.000426759
0.000657123
0.000797044
0.000826773
0.000764195
0.000650918
0.00053507
0.000425074
0.000308517
0.000201718
0.000133086
9.73411e-05
7.57303e-05
6.12606e-05
5.35983e-05
5.1308e-05
5.30749e-05
5.8224e-05
6.4512e-05
6.98825e-05
7.29726e-05
7.24639e-05
6.71815e-05
5.76115e-05
4.80671e-05
3.98108e-05
3.2969e-05
2.93328e-05
5.11789e-05
5.20599e-05
6.76599e-05
0.000300398
0.000248825
0.0097574
0.0276101
0.00939277
0.00266911
0.00122949
0.000750635
0.000625983
0.000825493
0.00104803
0.00112267
0.00107853
0.000943793
0.000766448
0.000609799
0.000475086
0.000332681
0.000201125
0.000117517
8.14493e-05
6.60486e-05
5.87564e-05
5.74031e-05
6.01672e-05
6.60191e-05
7.46608e-05
8.46508e-05
9.43294e-05
0.000102658
0.000108012
0.000107689
9.62888e-05
8.0955e-05
6.69865e-05
5.59361e-05
5.19561e-05
6.31315e-05
8.25473e-05
0.000146487
0.000377776
0.000339425
0.0106293
0.0321917
0.0171669
0.010808
0.00647722
0.00387366
0.00264226
0.00216466
0.00189524
0.0016765
0.0014379
0.00115501
0.000874357
0.000673666
0.000523064
0.000353944
0.000194919
0.000102285
7.5403e-05
6.72155e-05
6.55158e-05
6.7857e-05
7.32401e-05
8.1286e-05
9.18452e-05
0.000104561
0.000119132
0.000135571
0.000153818
0.000173199
0.00019145
0.00019333
0.000195711
0.000211418
0.000248093
0.000386022
0.000771908
0.00168657
0.00538592
0.00139249
0.0100014
0.01749
0.0147922
0.0112306
0.00837266
0.00614464
0.00462356
0.00358044
0.00285038
0.00230373
0.00179979
0.00130599
0.0009026
0.000689964
0.000551669
0.000347995
0.000169145
0.000105168
8.64221e-05
8.11504e-05
8.07464e-05
8.32016e-05
8.80449e-05
9.52786e-05
0.000105071
0.000117708
0.000133784
0.000154409
0.000181315
0.000216953
0.000264675
0.000328712
0.000416671
0.000556932
0.000767725
0.00105685
0.00138573
0.00166096
0.00184948
0.00109349
0.00636918
0.00975927
0.00761287
0.00600499
0.0048112
0.00390041
0.00315338
0.00246907
0.0017564
0.00113597
0.000712927
0.00062
0.000542978
0.000324071
0.000194129
0.00014581
0.000128765
0.000121722
0.000118266
0.000116845
0.000117241
0.000119596
0.000124159
0.00013127
0.000141501
0.000155888
0.000176211
0.000205385
0.000248067
0.00031031
0.000398822
0.000523335
0.000687346
0.000871588
0.00101895
0.00105339
0.00091861
0.000583638
0.00479418
0.00873996
0.00695506
0.00530839
0.00409704
0.00310271
0.00230393
0.00170943
0.00112774
0.000647933
0.00033104
0.000267916
0.000275242
0.000257704
0.000236003
0.000214399
0.0001973
0.000183807
0.000172535
0.000163042
0.000155601
0.000150783
0.000149249
0.000151715
0.000158988
0.00017209
0.000192438
0.000222124
0.00026424
0.000323429
0.000405753
0.000517421
0.000659479
0.00082268
0.000949836
0.00107006
0.000794142
0.000604261
0.00305583
0.00363033
0.00413856
0.00491715
0.004116
0.00345044
0.00272263
0.00192458
0.00133814
0.000927782
0.000625548
0.000229268
0.000171215
0.000184505
0.000188218
0.000165103
0.000145872
0.00013514
0.000129117
0.000126104
0.000125237
0.000126334
0.000129491
0.000134883
0.000142719
0.000153259
0.000166875
0.000184167
0.000206159
0.000234699
0.000271096
0.000316843
0.000374338
0.000446811
0.000538115
0.000678078
0.000730683
0.00068573
0.000559757
0.000442684
)
;

boundaryField
{
    floor
    {
        Cmu             0.09;
        kappa           0.41;
        E               9.8;
        type            epsilonWallFunction;
        value           nonuniform List<scalar> 
29
(
0.000419796
2.91466e-05
4.90684e-05
5.78456e-05
5.18479e-05
4.52265e-05
3.90863e-05
3.34318e-05
2.86582e-05
2.47615e-05
2.15887e-05
1.89873e-05
1.68473e-05
1.5056e-05
1.35233e-05
1.21687e-05
1.09087e-05
9.64514e-06
9.08792e-06
7.39515e-06
7.39515e-06
1.84497e-05
3.05984e-05
4.27824e-05
0.000419796
2.91466e-05
4.90232e-05
0.000253538
0.000531481
)
;
    }
    ceiling
    {
        Cmu             0.09;
        kappa           0.41;
        E               9.8;
        type            epsilonWallFunction;
        value           nonuniform List<scalar> 
43
(
0.00305583
0.00363033
0.00413856
0.00491715
0.004116
0.00345044
0.00272263
0.00192458
0.00133814
0.000927782
0.000625548
0.000229268
0.000171215
0.000184505
0.000188218
0.000165103
0.000145872
0.00013514
0.000129117
0.000126104
0.000125237
0.000126334
0.000129491
0.000134883
0.000142719
0.000153259
0.000166875
0.000184167
0.000206159
0.000234699
0.000271096
0.000316843
0.000374338
0.000446811
0.000538115
0.000678078
0.000730683
0.00068573
0.000559757
0.000442684
0.0100014
0.01749
0.00479418
)
;
    }
    sWall
    {
        Cmu             0.09;
        kappa           0.41;
        E               9.8;
        type            epsilonWallFunction;
        value           uniform 0.00305583;
    }
    nWall
    {
        Cmu             0.09;
        kappa           0.41;
        E               9.8;
        type            epsilonWallFunction;
        value           nonuniform List<scalar> 6(0.000219552 0.000248825 0.000339425 0.000583638 0.000604261 0.000442684);
    }
    sideWalls
    {
        type            empty;
    }
    glass1
    {
        Cmu             0.09;
        kappa           0.41;
        E               9.8;
        type            epsilonWallFunction;
        value           nonuniform List<scalar> 9(0.00025572 0.000738399 0.00147457 0.00259661 0.00424903 0.00663785 0.0097574 0.0106293 0.0100014);
    }
    glass2
    {
        Cmu             0.09;
        kappa           0.41;
        E               9.8;
        type            epsilonWallFunction;
        value           nonuniform List<scalar> 2(0.00139249 0.00109349);
    }
    sun
    {
        Cmu             0.09;
        kappa           0.41;
        E               9.8;
        type            epsilonWallFunction;
        value           nonuniform List<scalar> 
14
(
0.00025572
0.00031289
0.000318509
0.000359864
0.000399816
0.000438328
0.000476537
0.000516242
0.000557089
0.000588884
0.000603796
0.000593007
0.000552384
0.000488912
)
;
    }
    heatsource1
    {
        Cmu             0.09;
        kappa           0.41;
        E               9.8;
        type            epsilonWallFunction;
        value           nonuniform List<scalar> 3(9.48474e-05 0.000159694 0.000219552);
    }
    heatsource2
    {
        Cmu             0.09;
        kappa           0.41;
        E               9.8;
        type            epsilonWallFunction;
        value           nonuniform List<scalar> 4(0.000441051 8.14995e-05 8.14995e-05 0.000295421);
    }
    Table_master
    {
        Cmu             0.09;
        kappa           0.41;
        E               9.8;
        type            epsilonWallFunction;
        value           nonuniform List<scalar> 9(7.70719e-05 5.80684e-05 4.48609e-05 3.55438e-05 2.88329e-05 2.38924e-05 2.01878e-05 1.73817e-05 1.52724e-05);
    }
    Table_slave
    {
        Cmu             0.09;
        kappa           0.41;
        E               9.8;
        type            epsilonWallFunction;
        value           nonuniform List<scalar> 9(0.000106858 9.12902e-05 8.26401e-05 7.67916e-05 7.11637e-05 6.45756e-05 5.82195e-05 5.14627e-05 4.36331e-05);
    }
    inlet
    {
        type            turbulentMixingLengthDissipationRateInlet;
        mixingLength    0.01;
        phi             phi;
        k               k;
        value           uniform 0.000101881;
    }
    outlet
    {
        type            zeroGradient;
    }
}


// ************************************************************************* //
