/*--------------------------------*- C++ -*----------------------------------*\
  =========                 |
  \\      /  F ield         | OpenFOAM: The Open Source CFD Toolbox
   \\    /   O peration     | Website:  https://openfoam.org
    \\  /    A nd           | Version:  6
     \\/     M anipulation  |
\*---------------------------------------------------------------------------*/
FoamFile
{
    version     2.0;
    format      ascii;
    class       volScalarField;
    location    "100";
    object      alphat;
}
// * * * * * * * * * * * * * * * * * * * * * * * * * * * * * * * * * * * * * //

dimensions      [1 -1 -1 0 0 0 0];

internalField   nonuniform List<scalar> 
459
(
0.000884504
0.000913551
0.000876973
0.000908173
0.000937684
0.000964235
0.000988436
0.00101118
0.00103353
0.00105651
0.00107599
0.00109103
0.00110157
0.00110907
0.00111244
0.000816241
0.000820059
0.000793084
0.000794257
0.000795123
0.000775525
0.000724973
0.000674276
0.000628811
0.000587657
0.000550625
0.000517521
0.00048812
0.00046217
0.000439306
0.000418942
0.000401933
0.000425613
0.000409804
0.00143377
0.00225032
0.00176052
0.00215677
0.00230983
0.00247154
0.00263387
0.00278267
0.00289879
0.00296405
0.00298298
0.00292527
0.00274908
0.00239579
0.00182111
0.00118807
0.000987398
0.00104812
0.00243003
0.0031582
0.00370077
0.00378043
0.00341431
0.00247473
0.00204217
0.00172357
0.00148514
0.00130312
0.00116348
0.00105609
0.000972445
0.000905418
0.000855547
0.00080168
0.00118618
0.00062023
0.00193559
0.00362899
0.00184267
0.00305921
0.00332532
0.0034874
0.00362105
0.00372889
0.00380955
0.00385522
0.00386215
0.00379127
0.00359542
0.00322332
0.00266485
0.00202189
0.00137741
0.00126633
0.00430627
0.00502049
0.00512223
0.00484933
0.00391691
0.000962893
0.000800626
0.000695572
0.000624312
0.000573155
0.000534493
0.00050411
0.000479784
0.000461355
0.000536072
0.000625852
0.00142681
0.000774477
0.00243411
0.00558852
0.00191343
0.00339206
0.00392606
0.00408138
0.0041842
0.00426645
0.00433547
0.00438775
0.00442812
0.00443417
0.00435975
0.00412891
0.00365518
0.00292582
0.0021144
0.00158151
0.00483566
0.0052637
0.00533483
0.00520323
0.00493025
0.00408501
0.00100378
0.000956893
0.000944404
0.000940266
0.000933212
0.000914957
0.000879157
0.000837415
0.000790029
0.000770498
0.000792008
0.00192798
0.000838355
0.00291754
0.00795375
0.00250206
0.00317583
0.0041787
0.00436897
0.00444533
0.00449906
0.00455029
0.00460563
0.00467851
0.00478711
0.00491034
0.0050032
0.00500746
0.00489079
0.00470697
0.0045723
0.0047443
0.00478005
0.00488288
0.00489356
0.00486153
0.00470882
0.00423827
0.00419735
0.0042064
0.00419354
0.00412339
0.00397628
0.00374021
0.00328642
0.00269869
0.00211819
0.00157371
0.00162911
0.0013265
0.00096537
0.0011183
0.00126645
0.00338821
0.0102779
0.00415164
0.00279397
0.00394208
0.00435796
0.00449453
0.00454568
0.00455815
0.00456733
0.00462073
0.00475937
0.00495689
0.00516738
0.0053073
0.00526517
0.00496877
0.0045123
0.00416721
0.00413051
0.00447815
0.00467148
0.00481815
0.00487967
0.00489865
0.0049549
0.00499993
0.00498736
0.00489618
0.00473263
0.00452313
0.00423615
0.00377073
0.00315871
0.00246937
0.00173296
0.00161014
0.00145129
0.00199916
0.00136228
0.00384527
0.0120857
0.00738567
0.00375466
0.00301597
0.00346704
0.00403576
0.00440684
0.00456974
0.00448459
0.0044892
0.00460318
0.00479816
0.00505119
0.00529603
0.00539371
0.00516531
0.00458026
0.00393722
0.00369129
0.00426163
0.00459856
0.00488866
0.00500515
0.00505569
0.00510391
0.00512751
0.00507834
0.00494604
0.00476651
0.00460182
0.00448414
0.00423133
0.00373255
0.00313563
0.00250449
0.00225776
0.00232397
0.00244177
0.00168795
0.00395172
0.0121035
0.00959803
0.00727555
0.00515941
0.00394158
0.00371682
0.00404666
0.00447031
0.00444055
0.00440011
0.00444417
0.00457738
0.0047898
0.00505773
0.00531001
0.00535138
0.00490903
0.00403627
0.00338433
0.00412794
0.0046108
0.00509622
0.00523469
0.00524162
0.00523208
0.00518453
0.00505599
0.00485215
0.00464604
0.00453751
0.0045851
0.0047222
0.00445681
0.00418038
0.00424143
0.00494263
0.00604114
0.00711806
0.0022402
0.00385642
0.00466013
0.00524223
0.0054312
0.00519874
0.00470741
0.00427758
0.00404174
0.00397511
0.00397396
0.00404257
0.00416618
0.00433365
0.00453885
0.00478355
0.00506768
0.00532291
0.00526174
0.00435599
0.00316609
0.00397657
0.00464018
0.00545652
0.00561085
0.00554252
0.00547672
0.00536585
0.00513696
0.00478613
0.00439139
0.00407157
0.00388902
0.00381952
0.00379507
0.00381475
0.00384519
0.00375691
0.00347149
0.00313596
0.00205611
0.00307337
0.00492456
0.00516435
0.00499433
0.004734
0.00451302
0.00436816
0.00428734
0.00427294
0.0043144
0.0043954
0.00450986
0.00466815
0.00490489
0.00525417
0.00547206
0.00461611
0.00301696
0.0036916
0.00460577
0.00601823
0.00616405
0.00598119
0.00594311
0.00591541
0.00575639
0.00542988
0.00498497
0.00454762
0.00425995
0.00411238
0.00405474
0.0040193
0.00392577
0.00368139
0.00324949
0.00269866
0.00175106
0.00314539
0.00563919
0.00577508
0.00548154
0.00521087
0.00495661
0.00473267
0.00454851
0.00439112
0.00421249
0.00405485
0.00395354
0.0039412
0.00405813
0.00435104
0.00464627
0.00411308
0.00267814
0.00321465
0.00437851
0.00598709
0.00605611
0.0058356
0.00585383
0.005932
0.00592858
0.00581117
0.00558019
0.00524041
0.00495228
0.00477001
0.00468493
0.00464431
0.00462213
0.00454798
0.00438509
0.00347079
0.0017941
0.00273881
0.00286895
0.00298585
0.00312459
0.00291103
0.00263674
0.00244362
0.00227518
0.00212462
0.00199088
0.00187283
0.00177482
0.00169013
0.00161611
0.00155261
0.00150162
0.00146718
0.00144712
0.00141563
0.00135505
0.00139645
0.00150117
0.0015747
0.00158332
0.00157692
0.00157733
0.00157813
0.00157652
0.00157653
0.00158633
0.00161795
0.00166596
0.00173498
0.0018213
0.0019216
0.0020413
0.00207135
0.00201711
0.00187821
0.00173223
)
;

boundaryField
{
    floor
    {
        type            compressible::alphatWallFunction;
        Prt             0.85;
        value           nonuniform List<scalar> 
29
(
0.000157848
0.000115982
0.0001165
0.000112593
0.000112754
0.000112877
0.00011004
0.000102681
9.5239e-05
8.85061e-05
8.23596e-05
7.67828e-05
7.1758e-05
6.72614e-05
6.32641e-05
5.97185e-05
5.65407e-05
5.38706e-05
5.75753e-05
5.50984e-05
5.50977e-05
8.72072e-05
0.000109875
0.000119099
0.000157846
0.00011598
0.000148888
0.000179098
0.000221699
)
;
    }
    ceiling
    {
        type            compressible::alphatWallFunction;
        Prt             0.85;
        value           nonuniform List<scalar> 
43
(
0.000371464
0.000387815
0.000402441
0.000419815
0.000393219
0.000358729
0.000334211
0.000312654
0.000293241
0.000275872
0.000260434
0.000247537
0.00023633
0.000226485
0.000217997
0.000211157
0.000206521
0.00020381
0.000199542
0.000191319
0.000196988
0.000211069
0.000220919
0.000222095
0.000221248
0.0002213
0.000221405
0.000221189
0.00022119
0.000222499
0.000226721
0.000233112
0.000242264
0.000253656
0.000266818
0.00028243
0.000286333
0.000279285
0.000261137
0.000241907
0.000509966
0.000606726
0.00042222
)
;
    }
    sWall
    {
        type            compressible::alphatWallFunction;
        Prt             0.85;
        value           uniform 0.000370152;
    }
    nWall
    {
        type            compressible::alphatWallFunction;
        Prt             0.85;
        value           nonuniform List<scalar> 6(0.00017878 0.000191848 0.000235555 0.000243959 0.000249637 0.000241466);
    }
    sideWalls
    {
        type            empty;
    }
    glass1
    {
        type            compressible::alphatWallFunction;
        Prt             0.85;
        value           nonuniform List<scalar> 9(0.000121587 0.000196245 0.000261906 0.000325504 0.000385999 0.000443985 0.000499556 0.000512579 0.000501365);
    }
    glass2
    {
        type            compressible::alphatWallFunction;
        Prt             0.85;
        value           nonuniform List<scalar> 2(0.000304549 0.000281061);
    }
    sun
    {
        type            compressible::alphatWallFunction;
        Prt             0.85;
        value           nonuniform List<scalar> 
14
(
0.00012577
0.000129887
0.00012467
0.000129122
0.000133316
0.000137076
0.000140492
0.000143694
0.000146833
0.000150051
0.000152773
0.000154869
0.000156337
0.000157379
)
;
    }
    heatsource1
    {
        type            compressible::alphatWallFunction;
        Prt             0.85;
        value           nonuniform List<scalar> 3(0.000137531 0.000158974 0.000179422);
    }
    heatsource2
    {
        type            compressible::alphatWallFunction;
        Prt             0.85;
        value           nonuniform List<scalar> 4(0.000168626 0.000140673 0.000140672 0.00019454);
    }
    Table_master
    {
        type            compressible::alphatWallFunction;
        Prt             0.85;
        value           nonuniform List<scalar> 9(0.000137182 0.000113989 9.8676e-05 8.81296e-05 8.04672e-05 7.46198e-05 6.99872e-05 6.62526e-05 6.34073e-05);
    }
    Table_slave
    {
        type            compressible::alphatWallFunction;
        Prt             0.85;
        value           nonuniform List<scalar> 9(0.000142954 0.000136332 0.000134561 0.000133973 0.000132971 0.000130375 0.000125267 0.000119281 0.000112443);
    }
    inlet
    {
        type            fixedValue;
        value           uniform 1.94e-05;
    }
    outlet
    {
        type            zeroGradient;
    }
}


// ************************************************************************* //
