/*--------------------------------*- C++ -*----------------------------------*\
  =========                 |
  \\      /  F ield         | OpenFOAM: The Open Source CFD Toolbox
   \\    /   O peration     | Website:  https://openfoam.org
    \\  /    A nd           | Version:  6
     \\/     M anipulation  |
\*---------------------------------------------------------------------------*/
FoamFile
{
    version     2.0;
    format      ascii;
    class       volScalarField;
    location    "100";
    object      epsilon;
}
// * * * * * * * * * * * * * * * * * * * * * * * * * * * * * * * * * * * * * //

dimensions      [0 2 -3 0 0 0 0];

internalField   nonuniform List<scalar> 
459
(
0.000152132
0.000166934
0.000147666
0.000163997
0.000180513
0.000196287
0.000211442
0.000226375
0.000241721
0.000258203
0.000272744
0.000284329
0.000292635
0.000298635
0.000301356
0.000119131
0.00012064
0.000109057
0.000109494
0.00010983
0.0001019
8.32503e-05
6.69833e-05
5.43281e-05
4.43433e-05
3.64752e-05
3.02813e-05
2.5405e-05
2.15617e-05
1.85145e-05
1.60546e-05
1.41744e-05
1.6819e-05
1.5014e-05
0.000649834
0.00154251
0.000158847
0.000124797
0.000126286
0.000130712
0.000137008
0.000146229
0.00015958
0.000178033
0.000199393
0.00022254
0.000245733
0.000267341
0.000293667
0.00036696
0.000210819
0.000251973
0.000192891
0.000128467
0.000109868
9.68773e-05
8.59877e-05
7.72019e-05
6.06715e-05
4.77774e-05
3.78432e-05
3.02904e-05
2.46031e-05
2.03281e-05
1.71276e-05
1.48503e-05
1.34864e-05
1.50939e-05
9.63385e-05
5.20016e-05
0.00160326
0.00520929
0.000321752
0.000133151
0.000126257
0.000131782
0.000140768
0.000153413
0.000170069
0.000190667
0.000213472
0.000236327
0.000258689
0.000283923
0.000323064
0.000400096
0.00057187
0.000444278
0.000231018
0.000177546
0.000142141
0.000116402
0.000106515
0.000195048
0.000112117
7.35109e-05
5.31434e-05
4.11116e-05
3.33323e-05
2.79575e-05
2.40957e-05
2.14185e-05
1.84996e-05
2.29929e-05
0.000235877
0.000101234
0.00319678
0.0120171
0.000761266
0.000160409
0.000135124
0.000143094
0.000155737
0.000171989
0.000192131
0.000216256
0.00024173
0.000263101
0.000279449
0.000296221
0.000326486
0.000396677
0.000562346
0.000865274
0.000440686
0.000264605
0.000205756
0.00015916
0.000125835
0.000113495
0.000221034
0.000191445
0.000184024
0.000181598
0.000177524
0.000167289
0.000148391
0.000128228
0.000107651
7.00445e-05
6.24243e-05
0.000618812
0.000128421
0.00551802
0.0216799
0.00178372
0.000220647
0.00014571
0.000154424
0.000173079
0.000197933
0.000229314
0.000266931
0.000304439
0.00032944
0.000339926
0.000340246
0.000335311
0.00032993
0.000329655
0.000323147
0.000274663
0.000250816
0.000218807
0.000180942
0.0001506
0.000133427
0.000135161
0.000134345
0.000136428
0.000139032
0.000138938
0.000132776
0.000118814
0.000102661
9.02105e-05
7.68968e-05
7.22262e-05
0.000316553
0.000220424
0.000196268
0.00030527
0.000443473
0.00866032
0.0310626
0.00406771
0.000435392
0.000186246
0.000175725
0.000195575
0.000230129
0.000279886
0.000347407
0.00040674
0.000435503
0.000439547
0.00042947
0.000410087
0.00037898
0.00033254
0.000283579
0.000257291
0.000258422
0.000252922
0.00022264
0.000192808
0.000173038
0.00016561
0.000166412
0.000172481
0.000180791
0.000187434
0.00018745
0.000174533
0.000143677
0.00011555
9.35347e-05
8.55622e-05
0.000175834
0.000196861
0.000186877
0.000592704
0.000551688
0.0126793
0.0356575
0.00929102
0.00188183
0.000616073
0.00035813
0.000311314
0.00033101
0.000391327
0.000511619
0.000578906
0.000587789
0.000566939
0.000536558
0.000503965
0.000464499
0.000406987
0.000338533
0.000290696
0.000287893
0.000311025
0.000288823
0.000259582
0.00023565
0.000223925
0.000222771
0.000229883
0.000243346
0.000260097
0.000276875
0.000285387
0.000266392
0.000215661
0.000177146
0.000166527
0.000219743
0.000319023
0.000546178
0.00117796
0.00104965
0.0138
0.0437661
0.0210173
0.0111821
0.00530574
0.00242783
0.00133891
0.000980748
0.000899634
0.000921683
0.00087606
0.000799655
0.000720907
0.000652809
0.000598702
0.000555666
0.000510655
0.000446825
0.00036826
0.000334419
0.000392832
0.000388128
0.000368591
0.000340049
0.000322047
0.000315569
0.000318799
0.000331686
0.000356846
0.000398977
0.000459742
0.000531483
0.000565233
0.000602158
0.000771363
0.00131106
0.00267908
0.00509349
0.0137545
0.00246301
0.012875
0.0226309
0.0183136
0.0135135
0.00941069
0.00619885
0.00406325
0.00278456
0.00206594
0.00158153
0.00125404
0.00103071
0.000876946
0.000770158
0.000696963
0.000652054
0.000633733
0.000613012
0.000508112
0.000405408
0.000501291
0.000536855
0.000557709
0.000528086
0.000498722
0.000480865
0.000470554
0.000467581
0.000480303
0.000525303
0.00062134
0.000782672
0.00101889
0.00133693
0.00180408
0.00241085
0.00302933
0.00346897
0.00380053
0.00190977
0.00838053
0.0107256
0.00810039
0.00586422
0.00419609
0.00304291
0.00227715
0.00176343
0.00141893
0.00118613
0.00102616
0.000915783
0.000843662
0.000810958
0.000832373
0.000871122
0.00072313
0.000512045
0.000632007
0.000761896
0.000926853
0.000910776
0.000859786
0.000836008
0.00081885
0.000792297
0.000758211
0.000734988
0.000754387
0.000852171
0.001033
0.00130187
0.00164854
0.00200638
0.00222796
0.00213616
0.00163767
0.00117834
0.00657353
0.00995877
0.00748718
0.00543518
0.00405808
0.00306753
0.00235687
0.00185211
0.00149295
0.00123509
0.00105455
0.000936888
0.000874914
0.000869214
0.000921783
0.000974624
0.000903333
0.000631952
0.000797773
0.00111566
0.00145704
0.00149498
0.00145151
0.00143723
0.00142883
0.00139784
0.00134204
0.00127561
0.00122308
0.00123239
0.00132819
0.00152083
0.00179614
0.00213819
0.0024321
0.00250759
0.0015327
0.00126717
0.00439956
0.00505445
0.00569763
0.00662172
0.00538489
0.0040151
0.00319905
0.00258322
0.00210406
0.00173141
0.0014414
0.00122681
0.00105949
0.000926338
0.000821397
0.000743139
0.000693179
0.000665067
0.000622414
0.000545762
0.000597456
0.000741146
0.000855275
0.000869788
0.000859425
0.000860065
0.000861357
0.000858722
0.000858746
0.000874858
0.000928246
0.00101336
0.00114463
0.00132419
0.00155538
0.00186496
0.00194885
0.00179992
0.00145317
0.00114046
)
;

boundaryField
{
    floor
    {
        Cmu             0.09;
        kappa           0.41;
        E               9.8;
        type            epsilonWallFunction;
        value           nonuniform List<scalar> 
29
(
0.000301356
0.000119131
0.00012064
0.000109057
0.000109494
0.00010983
0.0001019
8.32503e-05
6.69833e-05
5.43281e-05
4.43433e-05
3.64752e-05
3.02813e-05
2.5405e-05
2.15617e-05
1.85145e-05
1.60546e-05
1.41744e-05
1.6819e-05
1.5014e-05
1.5014e-05
5.20016e-05
0.000101234
0.000128421
0.000301356
0.000119131
0.000251973
0.000444278
0.000865274
)
;
    }
    ceiling
    {
        Cmu             0.09;
        kappa           0.41;
        E               9.8;
        type            epsilonWallFunction;
        value           nonuniform List<scalar> 
43
(
0.00439956
0.00505445
0.00569763
0.00662172
0.00538489
0.0040151
0.00319905
0.00258322
0.00210406
0.00173141
0.0014414
0.00122681
0.00105949
0.000926338
0.000821397
0.000743139
0.000693179
0.000665067
0.000622414
0.000545762
0.000597456
0.000741146
0.000855275
0.000869788
0.000859425
0.000860065
0.000861357
0.000858722
0.000858746
0.000874858
0.000928246
0.00101336
0.00114463
0.00132419
0.00155538
0.00186496
0.00194885
0.00179992
0.00145317
0.00114046
0.012875
0.0226309
0.00657353
)
;
    }
    sWall
    {
        Cmu             0.09;
        kappa           0.41;
        E               9.8;
        type            epsilonWallFunction;
        value           uniform 0.00439956;
    }
    nWall
    {
        Cmu             0.09;
        kappa           0.41;
        E               9.8;
        type            epsilonWallFunction;
        value           nonuniform List<scalar> 6(0.000443473 0.000551688 0.00104965 0.00117834 0.00126717 0.00114046);
    }
    sideWalls
    {
        type            empty;
    }
    glass1
    {
        Cmu             0.09;
        kappa           0.41;
        E               9.8;
        type            epsilonWallFunction;
        value           nonuniform List<scalar> 9(0.000152132 0.000649834 0.00160326 0.00319678 0.00551802 0.00866032 0.0126793 0.0138 0.012875);
    }
    glass2
    {
        Cmu             0.09;
        kappa           0.41;
        E               9.8;
        type            epsilonWallFunction;
        value           nonuniform List<scalar> 2(0.00246301 0.00190977);
    }
    sun
    {
        Cmu             0.09;
        kappa           0.41;
        E               9.8;
        type            epsilonWallFunction;
        value           nonuniform List<scalar> 
14
(
0.000152132
0.000166934
0.000147666
0.000163997
0.000180513
0.000196287
0.000211442
0.000226375
0.000241721
0.000258203
0.000272744
0.000284329
0.000292635
0.000298635
)
;
    }
    heatsource1
    {
        Cmu             0.09;
        kappa           0.41;
        E               9.8;
        type            epsilonWallFunction;
        value           nonuniform List<scalar> 3(0.000196268 0.00030527 0.000443473);
    }
    heatsource2
    {
        Cmu             0.09;
        kappa           0.41;
        E               9.8;
        type            epsilonWallFunction;
        value           nonuniform List<scalar> 4(0.00036696 0.000210819 0.000210819 0.00057187);
    }
    Table_master
    {
        Cmu             0.09;
        kappa           0.41;
        E               9.8;
        type            epsilonWallFunction;
        value           nonuniform List<scalar> 9(0.000195048 0.000112117 7.35109e-05 5.31434e-05 4.11116e-05 3.33323e-05 2.79575e-05 2.40957e-05 2.14185e-05);
    }
    Table_slave
    {
        Cmu             0.09;
        kappa           0.41;
        E               9.8;
        type            epsilonWallFunction;
        value           nonuniform List<scalar> 9(0.000221034 0.000191445 0.000184024 0.000181598 0.000177524 0.000167289 0.000148391 0.000128228 0.000107651);
    }
    inlet
    {
        type            turbulentMixingLengthDissipationRateInlet;
        mixingLength    0.01;
        phi             phi;
        k               k;
        value           uniform 0.000101881;
    }
    outlet
    {
        type            zeroGradient;
    }
}


// ************************************************************************* //
