/*--------------------------------*- C++ -*----------------------------------*\
  =========                 |
  \\      /  F ield         | OpenFOAM: The Open Source CFD Toolbox
   \\    /   O peration     | Website:  https://openfoam.org
    \\  /    A nd           | Version:  6
     \\/     M anipulation  |
\*---------------------------------------------------------------------------*/
FoamFile
{
    version     2.0;
    format      ascii;
    class       volScalarField;
    location    "100";
    object      nut;
}
// * * * * * * * * * * * * * * * * * * * * * * * * * * * * * * * * * * * * * //

dimensions      [0 2 -1 0 0 0 0];

internalField   nonuniform List<scalar> 
459
(
0.000754709
0.000778432
0.000747243
0.000773836
0.00079899
0.000821621
0.000842249
0.000861633
0.000880685
0.00090027
0.000916869
0.000929678
0.000938652
0.000945031
0.000947896
0.000695347
0.000698506
0.000675479
0.000676435
0.000677134
0.000660413
0.000617343
0.000574151
0.000535414
0.000500347
0.000468788
0.000440573
0.000415511
0.000393388
0.000373894
0.000356532
0.000342026
0.000362147
0.000348713
0.00122457
0.00191768
0.00150013
0.00183782
0.0019683
0.00210615
0.00224454
0.00237139
0.00247039
0.00252604
0.00254218
0.00249296
0.00234273
0.00204156
0.00155174
0.00101227
0.000841184
0.000892801
0.00206968
0.00268964
0.00315151
0.00321918
0.00290728
0.0021071
0.0017387
0.00146734
0.00126427
0.00110923
0.000990286
0.000898804
0.000827537
0.000770428
0.000727929
0.000682035
0.00100906
0.000527715
0.0016547
0.0030932
0.00157027
0.00260708
0.00283402
0.00297232
0.00308638
0.00317844
0.00324731
0.00328631
0.00329223
0.00323171
0.00306459
0.00274718
0.00227096
0.00172287
0.00117361
0.00107868
0.00366777
0.00427583
0.00436222
0.0041296
0.00333541
0.000819877
0.000681643
0.000592145
0.000531431
0.00048784
0.000454891
0.000428993
0.000408253
0.000392537
0.000456081
0.000532423
0.00121373
0.000658934
0.00208268
0.00476473
0.00163074
0.00289106
0.00334649
0.00347919
0.00356714
0.00363753
0.00369661
0.00374133
0.00377577
0.00378079
0.00371702
0.00351976
0.00311546
0.0024934
0.00180164
0.00134745
0.00411956
0.00448385
0.00454407
0.00443165
0.00419889
0.00347885
0.000854781
0.000814829
0.000804172
0.00080063
0.000794605
0.000779041
0.000748534
0.000712967
0.000672589
0.00065583
0.000673984
0.00164033
0.000713316
0.0024983
0.00678362
0.00213269
0.00270703
0.00356226
0.00372492
0.00379049
0.00383674
0.00388082
0.00392829
0.00399056
0.00408306
0.00418775
0.0042663
0.00426917
0.00416894
0.0040116
0.00389634
0.00404247
0.00407252
0.00415964
0.00416835
0.00414077
0.00401048
0.00360956
0.00357461
0.00358222
0.0035712
0.00351137
0.00338599
0.00318484
0.00279828
0.00229769
0.00180322
0.00133944
0.00138626
0.00112866
0.000821615
0.000951923
0.00107811
0.00290331
0.00876947
0.00353954
0.00238176
0.00336083
0.0037159
0.00383291
0.00387712
0.00388833
0.00389663
0.00394245
0.00406068
0.00422878
0.00440762
0.00452606
0.00448919
0.00423567
0.00384596
0.0035514
0.00351969
0.00381532
0.00397958
0.0041042
0.00415637
0.00417237
0.00422018
0.00425845
0.00424766
0.00416992
0.0040305
0.0038519
0.00360725
0.00321066
0.00268925
0.00210202
0.00147484
0.00137013
0.00123503
0.00170132
0.00115951
0.0032967
0.0103192
0.00630077
0.00320177
0.00257166
0.00295652
0.00344193
0.00375899
0.00389861
0.00382671
0.00383113
0.00392843
0.00409445
0.00430966
0.00451762
0.0045999
0.00440415
0.0039046
0.00335595
0.00314591
0.00363125
0.00391782
0.0041646
0.00426361
0.00430653
0.00434751
0.00436755
0.00432561
0.00421285
0.00405982
0.00391934
0.0038188
0.00360313
0.00317804
0.00266943
0.00213177
0.00192153
0.00197785
0.00207816
0.00143677
0.00339109
0.0103547
0.00820381
0.0062133
0.00440345
0.00336304
0.00317101
0.00345258
0.0038145
0.00378991
0.00375579
0.00379337
0.00390669
0.00408736
0.00431517
0.00452943
0.00456366
0.00418555
0.00344087
0.00288472
0.00351771
0.00392858
0.00434175
0.00445952
0.00446531
0.00445713
0.00441658
0.00430706
0.00413337
0.00395771
0.00386512
0.0039054
0.00402171
0.00379521
0.00355946
0.0036111
0.00420802
0.00514385
0.00606148
0.00190924
0.00331357
0.00399895
0.00449372
0.00465067
0.00444731
0.00402403
0.0036548
0.00345229
0.0033949
0.0033935
0.00345158
0.00355655
0.00369889
0.00387337
0.00408146
0.00432308
0.00453993
0.0044869
0.00371389
0.00269904
0.00338907
0.00395395
0.00464907
0.00478037
0.00472209
0.004666
0.00457154
0.00437655
0.00407767
0.00374137
0.00346891
0.00331342
0.00325433
0.00323365
0.00325076
0.00327725
0.00320272
0.00296002
0.0026743
0.00175402
0.00258184
0.00417886
0.00440036
0.0042609
0.00404043
0.00385227
0.00372864
0.00365951
0.00364698
0.00368202
0.00375075
0.00384797
0.00398253
0.00418396
0.0044813
0.00466649
0.00393601
0.00257217
0.00314651
0.00392494
0.00512806
0.00525217
0.00509635
0.00506391
0.00504033
0.0049049
0.00462678
0.0042478
0.00387525
0.00363025
0.00350464
0.00345573
0.00342587
0.00334659
0.00313871
0.00277079
0.00230121
0.00149324
0.00264834
0.00478457
0.00491541
0.00467169
0.00444355
0.00422775
0.0040371
0.00388005
0.00374577
0.00359332
0.00345874
0.00337219
0.00336152
0.00346107
0.00371067
0.00396219
0.00350724
0.0022835
0.00274017
0.00373156
0.00510198
0.00516076
0.0049729
0.00498845
0.00505507
0.00505219
0.00495221
0.00475546
0.00446603
0.00422061
0.00406543
0.00399312
0.0039588
0.00394028
0.00387748
0.00373889
0.00295923
0.00152986
0.00231655
0.00242622
0.00252506
0.00265479
0.00247798
0.00224701
0.00208312
0.00193981
0.00181159
0.00169762
0.00159699
0.00151344
0.00144125
0.00137814
0.001324
0.00128053
0.00125116
0.00123405
0.00120718
0.00115547
0.0011904
0.00127954
0.00134218
0.00134953
0.00134408
0.00134443
0.00134512
0.00134376
0.00134377
0.00135213
0.00137909
0.00142002
0.00147886
0.00155247
0.00163802
0.0017402
0.00176591
0.00171973
0.00160132
0.00147707
)
;

boundaryField
{
    floor
    {
        type            nutkWallFunction;
        Cmu             0.09;
        kappa           0.41;
        E               9.8;
        value           nonuniform List<scalar> 
29
(
0.000114549
8.41919e-05
8.45577e-05
8.17214e-05
8.18341e-05
8.19194e-05
7.98606e-05
7.45275e-05
6.91335e-05
6.42529e-05
5.97967e-05
5.57529e-05
5.21087e-05
4.8847e-05
4.5947e-05
4.33744e-05
4.10684e-05
3.91305e-05
4.18127e-05
4.00195e-05
4.00194e-05
6.32741e-05
7.96827e-05
8.63624e-05
0.000114549
8.41919e-05
0.000108028
0.000129911
0.000160797
)
;
    }
    ceiling
    {
        type            nutkWallFunction;
        Cmu             0.09;
        kappa           0.41;
        E               9.8;
        value           nonuniform List<scalar> 
43
(
0.000267343
0.000279056
0.000289567
0.000303402
0.000284696
0.000260013
0.000242325
0.000226736
0.000212681
0.000200097
0.000188911
0.000179564
0.000171442
0.000164307
0.000158155
0.000153197
0.000149836
0.00014787
0.000144774
0.000138807
0.000142877
0.000153067
0.000160202
0.000161054
0.00016044
0.000160479
0.000160556
0.0001604
0.000160401
0.000161351
0.00016441
0.000169042
0.000175676
0.000183934
0.000193477
0.000204806
0.000207645
0.000202543
0.000189392
0.000175477
0.000372492
0.000442607
0.000302523
)
;
    }
    sWall
    {
        type            nutkWallFunction;
        Cmu             0.09;
        kappa           0.41;
        E               9.8;
        value           uniform 0.000267416;
    }
    nWall
    {
        type            nutkWallFunction;
        Cmu             0.09;
        kappa           0.41;
        E               9.8;
        value           nonuniform List<scalar> 6(0.000129843 0.000139289 0.00017094 0.000177314 0.000181424 0.000175495);
    }
    sideWalls
    {
        type            empty;
    }
    glass1
    {
        type            nutkWallFunction;
        Cmu             0.09;
        kappa           0.41;
        E               9.8;
        value           nonuniform List<scalar> 9(9.13947e-05 0.000146969 0.000195667 0.000242734 0.000287447 0.000330265 0.000371261 0.000381036 0.000373045);
    }
    glass2
    {
        type            nutkWallFunction;
        Cmu             0.09;
        kappa           0.41;
        E               9.8;
        value           nonuniform List<scalar> 2(0.00022357 0.000206498);
    }
    sun
    {
        type            nutkWallFunction;
        Cmu             0.09;
        kappa           0.41;
        E               9.8;
        value           nonuniform List<scalar> 
14
(
9.14104e-05
9.42872e-05
9.0504e-05
9.37311e-05
9.67714e-05
9.94971e-05
0.000101974
0.000104295
0.00010657
0.000108902
0.000110874
0.000112393
0.000113456
0.00011421
)
;
    }
    heatsource1
    {
        type            nutkWallFunction;
        Cmu             0.09;
        kappa           0.41;
        E               9.8;
        value           nonuniform List<scalar> 3(9.94922e-05 0.000115023 0.000129827);
    }
    heatsource2
    {
        type            nutkWallFunction;
        Cmu             0.09;
        kappa           0.41;
        E               9.8;
        value           nonuniform List<scalar> 4(0.000122122 0.000101865 0.000101865 0.000140893);
    }
    Table_master
    {
        type            nutkWallFunction;
        Cmu             0.09;
        kappa           0.41;
        E               9.8;
        value           nonuniform List<scalar> 9(9.92865e-05 8.24922e-05 7.14038e-05 6.37663e-05 5.82167e-05 5.39812e-05 5.06252e-05 4.79193e-05 4.58573e-05);
    }
    Table_slave
    {
        type            nutkWallFunction;
        Cmu             0.09;
        kappa           0.41;
        E               9.8;
        value           nonuniform List<scalar> 9(0.000103473 9.86764e-05 9.7392e-05 9.69643e-05 9.62367e-05 9.43554e-05 9.06555e-05 8.63206e-05 8.13677e-05);
    }
    inlet
    {
        type            calculated;
        value           uniform 0.000100623;
    }
    outlet
    {
        type            calculated;
        value           nonuniform List<scalar> 2(0.00231655 0.00242622);
    }
}


// ************************************************************************* //
