/*--------------------------------*- C++ -*----------------------------------*\
  =========                 |
  \\      /  F ield         | OpenFOAM: The Open Source CFD Toolbox
   \\    /   O peration     | Website:  https://openfoam.org
    \\  /    A nd           | Version:  6
     \\/     M anipulation  |
\*---------------------------------------------------------------------------*/
FoamFile
{
    version     2.0;
    format      ascii;
    class       surfaceScalarField;
    location    "100";
    object      phi;
}
// * * * * * * * * * * * * * * * * * * * * * * * * * * * * * * * * * * * * * //

dimensions      [1 0 -1 0 0 0 0];

internalField   nonuniform List<scalar> 
852
(
-0.00280406
0.00288161
-0.00312761
0.000323656
-0.00357365
0.000446159
-0.00403351
0.000459974
-0.00444732
0.000413928
-0.00478743
0.000340221
-0.00503241
0.000245101
-0.00516043
0.00012813
-0.00514763
-1.26841e-05
-0.00496596
-0.000181551
-0.00459156
-0.000374286
-0.00400967
-0.000581771
-0.00318355
-0.000826008
-0.00195119
-0.00123224
-0.00194659
0.000327479
-0.000321662
0.000623852
-0.000296296
0.000833341
-0.000209414
0.00105042
-0.000217001
0.00129746
-0.000246955
0.00151139
-0.000213843
0.0015704
-5.89134e-05
0.0015313
3.92122e-05
0.00146376
6.7648e-05
0.00139035
7.35386e-05
0.00131624
7.42463e-05
0.00124482
7.15581e-05
0.00117819
6.67767e-05
0.00111432
6.40161e-05
0.00104049
7.39782e-05
0.000938526
0.00010211
0.00083837
0.00010029
0.000824396
1.40979e-05
0.000834124
-0.00203844
0.00512231
-0.00273123
0.00101656
-0.00334809
0.00106314
-0.00386064
0.000972642
-0.00430003
0.000853433
-0.00466065
0.000700965
-0.00492801
0.000512583
-0.00508381
0.00028406
-0.00510817
1.17946e-05
-0.00498516
-0.000304433
-0.00469935
-0.000659978
-0.004236
-0.001045
-0.00359078
-0.0014711
-0.00287148
-0.00195143
-0.00250426
-0.00231371
-0.000441646
-0.00206255
-0.000441614
0.000534032
-0.000841226
0.000520683
-0.000282865
0.000558083
-0.000246731
0.000744736
-0.000403565
0.000998291
-0.000500418
0.00124516
-0.000460615
0.00128927
-0.000102926
0.00128424
4.43444e-05
0.00128086
7.114e-05
0.00127971
7.48072e-05
0.00127963
7.44542e-05
0.00128043
7.08893e-05
0.00128144
6.59037e-05
0.00128057
6.50389e-05
0.00125284
0.000101845
0.00111727
0.000237827
0.000898538
0.000319157
0.000652429
0.000260327
0.0015089
-0.00150975
0.00693261
-0.00234543
0.00185236
-0.00299133
0.00170917
-0.00349589
0.00147733
-0.0039322
0.00128987
-0.00430064
0.00106954
-0.00458881
0.000800876
-0.00477984
0.000475221
-0.0048563
8.83858e-05
-0.00480477
-0.000355828
-0.0046219
-0.000842715
-0.00431917
-0.0013476
-0.00393996
-0.00185019
-0.0035794
-0.00231187
-0.00326995
-0.00262305
-0.00257628
-0.00275611
-0.0030178
-0.000591856
-0.000228458
-0.000419359
-0.00045528
-6.29127e-05
-0.000603085
0.000267049
-0.000733431
0.000569037
-0.000802309
0.00100894
-0.000900419
0.000906265
0.000950866
0.00102227
0.00109734
0.00117207
0.00124325
0.00130944
0.00137477
0.00147692
0.00121574
0.000499147
0.000909243
0.00062579
0.000599012
0.000570686
0.00213989
-0.00112931
0.00844147
-0.00199583
0.00271901
-0.00253097
0.00224443
-0.00296472
0.00191121
-0.00335431
0.00167959
-0.00369547
0.00141084
-0.00397656
0.0010821
-0.00418178
0.000680579
-0.00429226
0.000199005
-0.00429224
-0.000355702
-0.00419006
-0.000944765
-0.00402659
-0.00151093
-0.00386891
-0.00200774
-0.00378377
-0.00239688
-0.00376224
-0.00264446
-0.00379022
-0.00272801
-0.00449526
-0.00231265
-0.00296589
-0.00150874
-0.00194547
-0.00124878
-0.00115243
-0.00124822
-0.000556324
-0.00119909
-0.000144689
-0.00114496
0.000110212
-0.00105711
0.000120635
-0.000910747
0.000676455
-0.000555884
0.00111778
-0.000441385
0.00151232
-0.000394602
0.0018695
-0.000357246
0.00217199
-0.000302546
0.00237897
-0.000207029
0.00242977
-5.0853e-05
0.0022658
0.000163913
0.00182526
0.000440501
0.00148041
0.000844123
0.000864695
0.00124164
-6.47042e-05
0.00150022
0.00211742
-0.000833473
0.00972006
-0.00167497
0.00356064
-0.00198541
0.002555
-0.0023027
0.00222863
-0.00260526
0.00198229
-0.00287448
0.0016802
-0.00310026
0.00130802
-0.00327073
0.000851196
-0.00336826
0.000296681
-0.00336885
-0.000354969
-0.00328442
-0.00102905
-0.00317219
-0.00162302
-0.00309208
-0.0020877
-0.00307715
-0.00241166
-0.00312355
-0.00259793
-0.00323445
-0.00261697
-0.00319004
-0.00235694
-0.00265511
-0.00204356
-0.00195675
-0.00194701
-0.00123755
-0.0019673
-0.000700136
-0.00173639
-0.000319687
-0.00152531
-6.68342e-05
-0.00130987
0.000139205
-0.00111669
0.000484488
-0.000901075
0.000824277
-0.000781081
0.00114643
-0.000716662
0.00145371
-0.000664427
0.00173616
-0.000584905
0.00196517
-0.000435938
0.0020921
-0.000177677
0.00206919
0.000186933
0.00190233
0.00060747
0.00166133
0.00108525
0.00132075
0.00158235
0.000641839
0.00217927
0.000248784
0.00251059
-0.00120294
0.0014516
-0.00174509
0.000542035
-0.00166934
-0.000744378
0.0109655
-0.00149515
0.00431154
-0.00138571
0.0024457
-0.00151877
0.00236183
-0.00172554
0.0021892
-0.00189905
0.00185386
-0.00202794
0.00143706
-0.00211387
0.00093727
-0.00214868
0.000331633
-0.00210561
-0.000397894
-0.00201083
-0.00112369
-0.00192929
-0.00170442
-0.00190549
-0.00211136
-0.00195685
-0.00236015
-0.00207861
-0.00247602
-0.00222958
-0.00246584
-0.00224194
-0.00234444
-0.00202983
-0.00225552
-0.00162767
-0.00234903
-0.00108151
-0.00251332
-0.000673091
-0.00214467
-0.000382228
-0.00181606
-0.000193376
-0.00149862
-2.65859e-05
-0.00128339
0.000187219
-0.00111479
0.00041658
-0.00101035
0.00065101
-0.000950997
0.000892896
-0.000906215
0.00114337
-0.000835277
0.00139361
-0.00068608
0.00161599
-0.000399949
0.00175087
5.21654e-05
0.00178866
0.000569791
0.00179537
0.00107865
0.00184658
0.00153127
0.0019889
0.00203707
0.00244796
0.00205166
0.00275204
0.00114763
0.00231674
0.000977442
0.000735993
-0.00102031
0.0125362
-0.00121065
0.00450201
-0.000464262
0.00169944
-0.00039928
0.00229699
-0.000597417
0.00238747
-0.000729553
0.00198614
-0.000753553
0.0014612
-0.000711111
0.000894973
-0.000607462
0.000228127
-0.000484297
-0.000520922
-0.000391434
-0.00121642
-0.000373012
-0.0017227
-0.000442182
-0.00204204
-0.000593353
-0.00220882
-0.000808323
-0.00226089
-0.00104347
-0.00223053
-0.00122073
-0.00216701
-0.00128235
-0.00219374
-0.00117494
-0.00245629
-0.000811175
-0.00287692
-0.000556357
-0.00239933
-0.000392255
-0.00198004
-0.000322641
-0.00156814
-0.000269766
-0.00133617
-0.000191759
-0.0011927
-9.69259e-05
-0.00110509
1.19179e-05
-0.00105975
0.000140701
-0.0010349
0.000301028
-0.000995504
0.000508331
-0.00089328
0.000771893
-0.000663404
0.00106033
-0.000236164
0.00132791
0.000302333
0.00158115
0.000825523
0.00192437
0.00118818
0.00247684
0.00148473
0.00327265
0.00125598
0.00396144
0.00045896
0.00397824
0.000960758
0.00480308
0.00236697
0.0107818
0.00281286
0.00405622
0.00252976
0.00198267
0.00209199
0.00273489
0.00159686
0.00288274
0.00129214
0.00229099
0.00121416
0.00153932
0.00127975
0.000829525
0.00145794
5.0074e-05
0.00161375
-0.000676608
0.00161066
-0.00121319
0.00146729
-0.0015792
0.0012238
-0.00179841
0.000911794
-0.00189667
0.000556563
-0.0019055
0.00018527
-0.00185906
-0.000171655
-0.0018099
-0.00048671
-0.0018785
-0.000669156
-0.00227367
-0.000476401
-0.00306949
-0.000365801
-0.00250974
-0.000349029
-0.0019967
-0.000445012
-0.00147207
-0.000544179
-0.00123692
-0.000615578
-0.00112122
-0.000674986
-0.00104559
-0.000732559
-0.00100208
-0.000784302
-0.000983064
-0.000815857
-0.000963849
-0.000799914
-0.00090912
-0.000686599
-0.000776613
-0.000401443
-0.000521209
-7.27797e-06
-9.17167e-05
0.00038797
0.000430389
0.00076559
0.000810672
0.00116993
0.0010805
0.00143727
0.000988764
0.00132807
0.000568274
0.000340946
0.00194799
0.00558714
0.0114697
0.0155314
0.0126711
0.00484315
0.0101666
0.00523941
0.00817984
0.00486967
0.00681756
0.0036534
0.00594548
0.00241152
0.00542126
0.00135387
0.00497407
0.000497386
0.00448338
-0.000185792
0.00397018
-0.000699863
0.00344342
-0.00105231
0.00290711
-0.00126196
0.00236918
-0.0013586
0.00184064
-0.00137681
0.00132943
-0.00134769
0.000820814
-0.00130111
0.000282191
-0.0013397
-0.000168918
-0.00182238
-0.000102655
-0.00313557
-8.94976e-05
-0.00252269
-0.000227942
-0.00185813
-0.000559075
-0.00114085
-0.000837506
-0.000958405
-0.00104346
-0.000915176
-0.0012449
-0.000844062
-0.00147953
-0.000767359
-0.001759
-0.000703504
-0.00208935
-0.000633404
-0.00247583
-0.00052254
-0.00291993
-0.000332414
-0.00343135
-9.68221e-06
-0.00398237
0.000459407
-0.00464572
0.00109385
-0.00566498
0.00183002
-0.00711911
0.00253473
-0.00910332
0.00297307
-0.0113462
0.00281125
-0.0103826
0.000984472
-0.00430323
0.00502303
0.00568751
0.00475007
0.00551243
0.0056118
0.00400803
0.00596415
0.00330115
0.0060153
0.00236048
0.00596261
0.00140668
0.00581598
0.000644139
0.00552854
0.000101768
0.00508277
-0.000253965
0.00453906
-0.000508467
0.00394941
-0.000672177
0.0033542
-0.000763249
0.00278121
-0.000803665
0.00224042
-0.000806747
0.00168584
-0.000746358
0.00100501
-0.000658694
0.000385373
-0.00120256
0.000302481
-0.00305247
0.000138805
-0.00235881
-0.000148294
-0.00157092
-0.000779582
-0.000509491
-0.00118514
-0.000552766
-0.00142004
-0.000680189
-0.00165104
-0.000612982
-0.00192764
-0.000490671
-0.00225597
-0.000375092
-0.00263089
-0.000258393
-0.00302425
-0.000129085
-0.00336314
6.57091e-06
-0.0036165
0.000243777
-0.00381214
0.000655137
-0.00397974
0.00126154
-0.00415197
0.00200235
-0.00426986
0.00265271
-0.00416641
0.00286971
-0.00355142
0.00219634
-0.00189976
-0.000667109
-0.00608653
-0.00111656
0.00685951
0.00123399
0.00316194
0.00265037
0.00259173
0.0037049
0.00224673
0.00452802
0.00153746
0.00501072
0.00092409
0.00517974
0.000475242
0.00510165
0.000179975
0.00487463
-2.68161e-05
0.00455279
-0.000186503
0.00417207
-0.000291321
0.00376498
-0.000356026
0.00335466
-0.000393196
0.00295413
-0.000406066
0.00255062
-0.000342692
0.0020781
-0.00018601
0.00149956
-0.000623845
0.000670932
-0.00222365
-0.000153672
-0.00153399
-0.000766614
-0.000957899
-0.00128328
7.23386e-06
-0.0016365
-0.000199475
-0.00189087
-0.000425741
-0.00210653
-0.000397238
-0.00229058
-0.000306543
-0.00244442
-0.000221166
-0.00257337
-0.000129353
-0.00268497
-1.74029e-05
-0.00276924
9.09291e-05
-0.00274923
0.000223859
-0.00256991
0.000475905
-0.00218526
0.000876987
-0.0016224
0.00143958
-0.000863376
0.00189378
0.000322576
0.00168384
0.00164853
0.000870462
0.00176541
-0.000783902
-0.00419427
-0.0103592
-0.0132313
-0.00631889
-0.00311867
-0.000491805
0.00178934
0.00336217
0.00432306
0.00483681
0.00505715
0.00507257
0.00493003
0.00468432
0.00437547
0.00403091
0.00367474
0.00338287
0.00324826
0.00267678
0.000507589
-0.0009713
-0.0018767
-0.00181873
-0.00196769
-0.00234282
-0.00268952
-0.00294559
-0.00311628
-0.0031952
-0.00316242
-0.00302207
-0.0027499
-0.0022272
-0.00130517
0.00017753
0.00211206
0.00383582
0.00474683
0.00400575
)
;

boundaryField
{
    floor
    {
        type            calculated;
        value           nonuniform List<scalar> 
29
(
0
0
0
0
0
0
0
0
0
0
0
0
0
0
0
0
0
0
0
0
-9.60893e-06
-2.22323e-05
-3.18663e-05
-4.21211e-05
-4.48791e-06
-5.71588e-06
-1.43912e-05
-2.08392e-05
-2.05351e-05
)
;
    }
    ceiling
    {
        type            calculated;
        value           nonuniform List<scalar> 
43
(
-5.65301e-05
-5.46351e-05
-5.28946e-05
-3.82047e-05
-3.50338e-05
-3.43178e-05
-3.52542e-05
-3.66851e-05
-3.83923e-05
-4.02343e-05
-4.21169e-05
-4.38389e-05
-4.54774e-05
-4.70419e-05
-4.84971e-05
-4.97548e-05
-5.06685e-05
-5.12546e-05
-5.22014e-05
-5.42554e-05
-5.48666e-05
-5.24324e-05
-5.0668e-05
-5.044e-05
-5.05324e-05
-5.04654e-05
-5.03964e-05
-5.03925e-05
-5.03587e-05
-5.01018e-05
-4.93367e-05
-4.82235e-05
-4.67128e-05
-4.49504e-05
-4.30362e-05
-4.06662e-05
-3.98364e-05
-4.04675e-05
-4.274e-05
-4.49505e-05
-4.08697e-06
-5.40038e-06
-5.5438e-05
)
;
    }
    sWall
    {
        type            calculated;
        value           uniform -0.000251145;
    }
    nWall
    {
        type            calculated;
        value           nonuniform List<scalar> 6(-7.58562e-05 -8.84984e-05 -8.87362e-05 -0.000116389 -0.000126772 -0.000143487);
    }
    sideWalls
    {
        type            empty;
        value           nonuniform 0();
    }
    glass1
    {
        type            calculated;
        value           nonuniform List<scalar> 9(-7.74345e-05 -0.000202138 -0.000300437 -0.000379443 -0.000445006 -0.000500984 -0.000550286 -0.000612434 -0.000683704);
    }
    glass2
    {
        type            calculated;
        value           nonuniform List<scalar> 2(-0.000443015 -0.000492133);
    }
    sun
    {
        type            calculated;
        value           uniform 0;
    }
    heatsource1
    {
        type            calculated;
        value           nonuniform List<scalar> 3(2.08987e-07 2.08771e-07 2.08779e-07);
    }
    heatsource2
    {
        type            calculated;
        value           nonuniform List<scalar> 4(5.20057e-08 5.2266e-08 0 0);
    }
    Table_master
    {
        type            calculated;
        value           nonuniform List<scalar> 9(-1.56684e-07 -1.56802e-07 -1.56823e-07 -1.56838e-07 -1.5685e-07 -1.56862e-07 -1.56874e-07 -1.56885e-07 -1.5688e-07);
    }
    Table_slave
    {
        type            calculated;
        value           nonuniform List<scalar> 9(1.5673e-07 1.56649e-07 1.56528e-07 1.56417e-07 1.56327e-07 1.56271e-07 1.56271e-07 1.56295e-07 1.56378e-07);
    }
    inlet
    {
        type            calculated;
        value           uniform -0.00586741;
    }
    outlet
    {
        type            calculated;
        value           nonuniform List<scalar> 2(0.0106669 0.00292683);
    }
}


// ************************************************************************* //
