/*--------------------------------*- C++ -*----------------------------------*\
  =========                 |
  \\      /  F ield         | OpenFOAM: The Open Source CFD Toolbox
   \\    /   O peration     | Website:  https://openfoam.org
    \\  /    A nd           | Version:  6
     \\/     M anipulation  |
\*---------------------------------------------------------------------------*/
FoamFile
{
    version     2.0;
    format      ascii;
    class       volScalarField;
    location    "100";
    object      T;
}
// * * * * * * * * * * * * * * * * * * * * * * * * * * * * * * * * * * * * * //

dimensions      [0 0 0 1 0 0 0];

internalField   nonuniform List<scalar> 
459
(
300.508
300.099
300.09
300.094
300.097
300.099
300.102
300.104
300.105
300.107
300.107
300.105
300.103
300.099
300.096
300.027
299.986
299.964
299.945
299.928
299.914
299.903
299.892
299.879
299.863
299.845
299.824
299.801
299.776
299.75
299.723
299.697
299.672
299.688
300.793
300.123
300.091
300.099
300.108
300.116
300.123
300.129
300.134
300.139
300.139
300.135
300.125
300.109
300.089
300.068
300.031
299.993
299.956
299.931
299.912
299.896
299.882
299.865
299.846
299.826
299.805
299.781
299.756
299.729
299.702
299.674
299.648
299.621
299.595
299.649
301.067
300.177
300.111
300.124
300.141
300.158
300.173
300.187
300.197
300.203
300.204
300.196
300.178
300.151
300.12
300.089
300.066
299.988
299.956
299.938
299.92
299.905
299.891
299.866
299.836
299.807
299.78
299.752
299.724
299.696
299.668
299.641
299.623
299.6
299.58
299.633
301.32
300.254
300.137
300.151
300.178
300.205
300.23
300.253
300.271
300.282
300.285
300.273
300.248
300.21
300.165
300.118
300.074
300.045
300.014
299.99
299.965
299.944
299.925
299.909
299.892
299.881
299.873
299.867
299.86
299.852
299.842
299.83
299.815
299.755
299.686
299.623
299.64
301.553
300.349
300.169
300.174
300.207
300.244
300.281
300.315
300.345
300.366
300.375
300.364
300.335
300.29
300.236
300.181
300.133
300.095
300.063
300.032
299.997
299.969
299.947
299.93
299.918
299.909
299.902
299.895
299.888
299.879
299.867
299.851
299.831
299.793
299.733
299.661
299.637
299.717
299.765
299.788
301.751
300.468
300.23
300.195
300.226
300.267
300.311
300.357
300.401
300.437
300.457
300.453
300.423
300.373
300.313
300.25
300.192
300.147
300.11
300.074
300.026
299.992
299.968
299.951
299.94
299.932
299.926
299.921
299.914
299.905
299.89
299.869
299.845
299.811
299.763
299.699
299.658
299.673
299.685
299.732
301.903
300.669
300.414
300.287
300.264
300.288
300.327
300.373
300.424
300.483
300.52
300.523
300.495
300.446
300.384
300.316
300.25
300.195
300.153
300.113
300.053
300.013
299.986
299.97
299.961
299.955
299.95
299.946
299.941
299.932
299.917
299.892
299.861
299.827
299.786
299.736
299.699
299.696
299.703
299.74
302.175
301.255
300.982
300.721
300.539
300.448
300.423
300.438
300.474
300.538
300.57
300.567
300.538
300.492
300.434
300.369
300.3
300.237
300.189
300.149
300.078
300.032
300.002
299.988
299.981
299.977
299.974
299.972
299.969
299.963
299.952
299.933
299.898
299.86
299.831
299.802
299.797
299.831
299.864
300.111
302.557
302.166
301.847
301.521
301.228
301.006
300.859
300.771
300.729
300.692
300.647
300.599
300.549
300.497
300.443
300.387
300.329
300.272
300.22
300.181
300.102
300.05
300.018
300.006
300.002
300.001
300
300.001
300.002
300.003
300.005
300.009
300.02
300.034
300.066
300.116
300.183
300.246
300.287
300.39
295.803
298.798
300.026
300.407
300.529
300.564
300.566
300.554
300.534
300.506
300.474
300.438
300.401
300.363
300.322
300.281
300.239
300.205
300.125
300.067
300.035
300.027
300.026
300.027
300.028
300.032
300.038
300.046
300.057
300.068
300.08
300.099
300.129
300.168
300.212
300.245
300.258
300.273
296.467
298.747
299.695
300.088
300.26
300.332
300.359
300.363
300.361
300.355
300.346
300.334
300.32
300.304
300.287
300.267
300.246
300.224
300.139
300.083
300.055
300.053
300.056
300.056
300.057
300.059
300.063
300.069
300.078
300.087
300.099
300.115
300.137
300.167
300.199
300.221
300.212
300.25
297.815
297.766
297.762
299.161
299.722
300.058
300.156
300.201
300.224
300.236
300.242
300.247
300.251
300.255
300.258
300.26
300.26
300.259
300.256
300.243
300.148
300.118
300.11
300.11
300.112
300.113
300.114
300.116
300.117
300.119
300.12
300.121
300.124
300.13
300.14
300.164
300.18
300.19
300.194
300.236
)
;

boundaryField
{
    floor
    {
        type            wallHeatTransfer;
        Tinf            uniform 305.2;
        alphaWall       uniform 0.24;
        value           nonuniform List<scalar> 
29
(
300.686
300.776
300.739
300.738
300.721
300.706
300.708
300.737
300.771
300.803
300.833
300.861
300.886
300.908
300.928
300.945
300.96
300.972
300.908
300.95
300.95
300.622
300.47
300.431
300.686
300.776
300.622
300.534
300.5
)
;
    }
    ceiling
    {
        type            wallHeatTransfer;
        Tinf            uniform 303.2;
        alphaWall       uniform 0.24;
        value           nonuniform List<scalar> 
43
(
298.122
298.064
298.051
299.367
299.91
300.243
300.346
300.4
300.432
300.454
300.47
300.485
300.499
300.511
300.521
300.53
300.536
300.537
300.539
300.538
300.445
300.401
300.384
300.383
300.385
300.386
300.387
300.389
300.39
300.39
300.387
300.383
300.377
300.373
300.372
300.383
300.396
300.41
300.426
300.48
302.585
302.204
296.81
)
;
    }
    sWall
    {
        type            wallHeatTransfer;
        Tinf            uniform 315.2;
        alphaWall       uniform 0.36;
        value           uniform 299.264;
    }
    nWall
    {
        type            wallHeatTransfer;
        Tinf            uniform 307.2;
        alphaWall       uniform 0.36;
        value           nonuniform List<scalar> 6(300.898 300.793 300.643 301.089 301.053 301.063);
    }
    sideWalls
    {
        type            empty;
    }
    glass1
    {
        type            wallHeatTransfer;
        Tinf            uniform 315.2;
        alphaWall       uniform 4.3;
        value           nonuniform List<scalar> 9(311.451 310.295 309.535 308.96 308.525 308.179 307.889 307.959 308.237);
    }
    glass2
    {
        type            wallHeatTransfer;
        Tinf            uniform 307.2;
        alphaWall       uniform 4.3;
        value           nonuniform List<scalar> 2(304.12 304.364);
    }
    sun
    {
        type            wallHeatTransfer;
        Tinf            uniform 305.2;
        alphaWall       uniform 0.24;
        value           nonuniform List<scalar> 
14
(
301.15
300.781
300.793
300.779
300.766
300.755
300.745
300.736
300.727
300.718
300.71
300.703
300.696
300.69
)
;
    }
    heatsource1
    {
        type            fixedGradient;
        gradient        uniform 0;
    }
    heatsource2
    {
        type            fixedGradient;
        gradient        uniform 0;
    }
    Table_master
    {
        type            zeroGradient;
    }
    Table_slave
    {
        type            zeroGradient;
    }
    inlet
    {
        type            fixedValue;
        value           uniform 290.15;
    }
    outlet
    {
        type            zeroGradient;
    }
}


// ************************************************************************* //
