/*--------------------------------*- C++ -*----------------------------------*\
  =========                 |
  \\      /  F ield         | OpenFOAM: The Open Source CFD Toolbox
   \\    /   O peration     | Website:  https://openfoam.org
    \\  /    A nd           | Version:  6
     \\/     M anipulation  |
\*---------------------------------------------------------------------------*/
FoamFile
{
    version     2.0;
    format      ascii;
    class       volVectorField;
    location    "100";
    object      U;
}
// * * * * * * * * * * * * * * * * * * * * * * * * * * * * * * * * * * * * * //

dimensions      [0 1 -1 0 0 0 0];

internalField   nonuniform List<vector> 
459
(
(0.10009 0.0768565 0)
(-0.153666 0.00571075 0)
(-0.142304 0.00950575 0)
(-0.162832 0.00918463 0)
(-0.181724 0.00725442 0)
(-0.198001 0.00462726 0)
(-0.210652 0.00147697 0)
(-0.218799 -0.00221481 0)
(-0.221501 -0.00653998 0)
(-0.217617 -0.0116889 0)
(-0.205555 -0.0180777 0)
(-0.182906 -0.0261005 0)
(-0.148652 -0.0373166 0)
(-0.112237 -0.0548531 0)
(-0.106814 -0.0783729 0)
(0.103087 -0.0203473 0)
(0.00874424 -0.0130407 0)
(0.0222718 -0.00882462 0)
(0.0392426 -0.0077014 0)
(0.0505658 -0.00790856 0)
(0.0600887 -0.00674348 0)
(0.0664889 -0.00288156 0)
(0.0672662 -0.000456389 0)
(0.0645054 0.000507058 0)
(0.0609202 0.000858066 0)
(0.0575531 0.00102228 0)
(0.0544413 0.00107253 0)
(0.0515134 0.00103036 0)
(0.0487498 0.000991524 0)
(0.0459308 0.0012499 0)
(0.0424007 0.00209292 0)
(0.0378144 0.00171745 0)
(0.0469691 -0.000807691 0)
(-0.0463617 0.0221693 0)
(0.323455 0.16707 0)
(-0.176665 0.0277671 0)
(-0.127423 0.0323862 0)
(-0.154495 0.0312628 0)
(-0.174864 0.0280843 0)
(-0.192106 0.0236301 0)
(-0.205649 0.0179616 0)
(-0.214849 0.0109303 0)
(-0.218878 0.00231178 0)
(-0.21671 -0.00813167 0)
(-0.20764 -0.0200837 0)
(-0.190646 -0.0334316 0)
(-0.16625 -0.0493201 0)
(-0.138738 -0.0698987 0)
(-0.112734 -0.0899398 0)
(-0.0793211 -0.083618 0)
(-0.0218992 -0.0196734 0)
(0.124426 -0.0224812 0)
(0.012821 -0.0086742 0)
(0.0148962 -0.0067524 0)
(0.0268958 -0.0112337 0)
(0.0372704 -0.0148295 0)
(0.0474232 -0.0136931 0)
(0.0553471 -0.00233046 0)
(0.0562748 0.00373777 0)
(0.0550099 0.00551341 0)
(0.0543706 0.00576254 0)
(0.054347 0.00561996 0)
(0.0544498 0.00533324 0)
(0.0545217 0.00500597 0)
(0.0545654 0.00484472 0)
(0.0541233 0.00549461 0)
(0.0511847 0.00890047 0)
(0.0433485 0.00916449 0)
(0.0587266 0.00534333 0)
(-0.110542 0.0489027 0)
(0.512962 0.255715 0)
(-0.227194 0.0602893 0)
(-0.103872 0.0586891 0)
(-0.139117 0.0519623 0)
(-0.159106 0.0451641 0)
(-0.176473 0.0368662 0)
(-0.190627 0.0267041 0)
(-0.201054 0.0144557 0)
(-0.206954 2.47956e-05 0)
(-0.207216 -0.0164 0)
(-0.20166 -0.0346898 0)
(-0.190664 -0.0541435 0)
(-0.175779 -0.0743251 0)
(-0.159487 -0.0943577 0)
(-0.142273 -0.109453 0)
(-0.126036 -0.113195 0)
(-0.135843 -0.114995 0)
(0.0660965 -0.0119692 0)
(-0.0304383 -0.0112756 0)
(-0.0124381 -0.0154315 0)
(0.00514579 -0.023101 0)
(0.0189719 -0.0275805 0)
(0.0301514 -0.0296752 0)
(0.044356 -0.0154773 0)
(0.0431165 -0.00655513 0)
(0.0420603 -0.00303809 0)
(0.0444899 -0.00174715 0)
(0.0480636 -0.00123717 0)
(0.0514196 -0.00109991 0)
(0.054383 -0.00115455 0)
(0.0572701 -0.00115256 0)
(0.06061 0.000797324 0)
(0.0590519 0.0148253 0)
(0.0447021 0.0193863 0)
(0.0754439 0.0167885 0)
(-0.158192 0.0737183 0)
(0.668616 0.330081 0)
(-0.282239 0.0980095 0)
(-0.0733629 0.0846505 0)
(-0.118008 0.0725017 0)
(-0.135353 0.0634533 0)
(-0.15109 0.0528869 0)
(-0.164537 0.0399618 0)
(-0.175167 0.0242326 0)
(-0.182147 0.00546449 0)
(-0.184189 -0.0160683 0)
(-0.181161 -0.0392516 0)
(-0.174841 -0.0623727 0)
(-0.167438 -0.0837595 0)
(-0.161432 -0.101544 0)
(-0.158903 -0.112508 0)
(-0.164735 -0.112402 0)
(-0.180667 -0.0893003 0)
(-0.161971 -0.0157817 0)
(-0.102044 -0.031363 0)
(-0.0671773 -0.0353209 0)
(-0.0355638 -0.0385039 0)
(-0.0139053 -0.0402451 0)
(0.000220728 -0.0399424 0)
(0.00592435 -0.0381964 0)
(0.0154946 -0.0232446 0)
(0.0373237 -0.0183615 0)
(0.0560542 -0.0157809 0)
(0.0721909 -0.0139132 0)
(0.0862178 -0.0118602 0)
(0.097298 -0.00897117 0)
(0.103602 -0.00483565 0)
(0.102065 0.000818992 0)
(0.0907255 0.00839237 0)
(0.0714305 0.0266594 0)
(0.0469963 0.0403081 0)
(0.081799 0.0474472 0)
(-0.251545 0.093787 0)
(0.793694 0.391594 0)
(-0.331672 0.136896 0)
(-0.039755 0.104573 0)
(-0.0920117 0.0889587 0)
(-0.105289 0.0785328 0)
(-0.117492 0.066285 0)
(-0.128241 0.0511483 0)
(-0.137039 0.032534 0)
(-0.1431 0.0101233 0)
(-0.144794 -0.0156342 0)
(-0.141792 -0.0425355 0)
(-0.136955 -0.0673962 0)
(-0.132486 -0.0880364 0)
(-0.130359 -0.103493 0)
(-0.131841 -0.113347 0)
(-0.137043 -0.116751 0)
(-0.139309 -0.108022 0)
(-0.126544 -0.0801933 0)
(-0.0989281 -0.0714129 0)
(-0.0677499 -0.0703443 0)
(-0.0404223 -0.0639031 0)
(-0.0208688 -0.0578792 0)
(-0.00759781 -0.0511862 0)
(0.00119427 -0.0439342 0)
(0.0130505 -0.0328738 0)
(0.0277477 -0.027394 0)
(0.0419671 -0.024477 0)
(0.0553677 -0.022135 0)
(0.0679092 -0.0188122 0)
(0.0789503 -0.0130168 0)
(0.0871275 -0.00352069 0)
(0.0903115 0.00916447 0)
(0.086736 0.0241708 0)
(0.0776195 0.0430112 0)
(0.0584232 0.0613855 0)
(0.0925175 0.0797413 0)
(-0.0675763 0.101964 0)
(0.0647004 0.017528 0)
(-0.0742863 -0.0356155 0)
(-0.334629 -0.064319 0)
(0.877274 0.446458 0)
(-0.372603 0.171194 0)
(-0.0121371 0.111577 0)
(-0.0603246 0.100821 0)
(-0.070035 0.0896564 0)
(-0.0780317 0.0758496 0)
(-0.0845619 0.0591006 0)
(-0.0896198 0.0385396 0)
(-0.0928027 0.0134187 0)
(-0.0914713 -0.0161306 0)
(-0.0868435 -0.0463304 0)
(-0.0826639 -0.0716818 0)
(-0.0804019 -0.0902987 0)
(-0.0812327 -0.102383 0)
(-0.0856433 -0.108675 0)
(-0.0925384 -0.109233 0)
(-0.0969683 -0.103187 0)
(-0.0930614 -0.0948204 0)
(-0.0794095 -0.0945476 0)
(-0.0571125 -0.0971439 0)
(-0.036958 -0.0841478 0)
(-0.0218554 -0.0723907 0)
(-0.0117601 -0.0609617 0)
(-0.00502775 -0.0521678 0)
(0.00321994 -0.0438061 0)
(0.0127905 -0.0390391 0)
(0.0226459 -0.0364515 0)
(0.0326981 -0.0343738 0)
(0.0430141 -0.0310481 0)
(0.0535364 -0.0243859 0)
(0.0637284 -0.012194 0)
(0.0730765 0.00603364 0)
(0.0769705 0.0265236 0)
(0.0779114 0.0479867 0)
(0.073026 0.0686652 0)
(0.102669 0.0927401 0)
(0.0621405 0.100118 0)
(0.121198 0.0668098 0)
(0.143907 0.04812 0)
(-0.143962 -0.000428544 0)
(0.899816 0.49652 0)
(-0.391534 0.169441 0)
(0.00899655 0.0772362 0)
(-0.00898608 0.1076 0)
(-0.0221718 0.103102 0)
(-0.0301317 0.0826659 0)
(-0.0329377 0.062133 0)
(-0.0330787 0.0398152 0)
(-0.0316149 0.0124081 0)
(-0.0221583 -0.021047 0)
(-0.0158543 -0.0522375 0)
(-0.0139262 -0.0752497 0)
(-0.0156495 -0.0902182 0)
(-0.0209429 -0.0985832 0)
(-0.0294185 -0.10189 0)
(-0.0397111 -0.101215 0)
(-0.0492144 -0.0980364 0)
(-0.0552894 -0.0977426 0)
(-0.0550031 -0.105903 0)
(-0.0410902 -0.117419 0)
(-0.0292816 -0.0992722 0)
(-0.0196197 -0.0828628 0)
(-0.0147544 -0.0669383 0)
(-0.0129329 -0.0570318 0)
(-0.0100746 -0.0503279 0)
(-0.00622345 -0.0462396 0)
(-0.00190337 -0.0441118 0)
(0.00306342 -0.0428247 0)
(0.00886184 -0.0407484 0)
(0.0161004 -0.0356546 0)
(0.0253238 -0.0246656 0)
(0.0383871 -0.00502389 0)
(0.0526876 0.0192968 0)
(0.0633113 0.0417937 0)
(0.0717638 0.0606738 0)
(0.099685 0.0802785 0)
(0.113331 0.0777244 0)
(0.154085 0.0453245 0)
(0.201205 0.0434797 0)
(-0.0206553 0.115528 0)
(1.00443 0.517164 0)
(-0.139175 0.15734 0)
(0.0831163 0.0183398 0)
(0.118987 0.0580547 0)
(0.0844807 0.0821785 0)
(0.0576287 0.0672576 0)
(0.049531 0.0432555 0)
(0.0505522 0.0196336 0)
(0.0544528 -0.00943645 0)
(0.0693458 -0.0357845 0)
(0.0723964 -0.05731 0)
(0.067924 -0.0733624 0)
(0.0588132 -0.0837436 0)
(0.0463828 -0.0890033 0)
(0.0316465 -0.0902439 0)
(0.0158651 -0.0887486 0)
(-5.42343e-05 -0.0865914 0)
(-0.0158648 -0.0897272 0)
(-0.0290744 -0.105948 0)
(-0.0219114 -0.132035 0)
(-0.0188405 -0.109974 0)
(-0.0144325 -0.0891003 0)
(-0.0163468 -0.067963 0)
(-0.0216403 -0.0572737 0)
(-0.0250103 -0.0515045 0)
(-0.0274505 -0.0478814 0)
(-0.029852 -0.0458985 0)
(-0.0322698 -0.0450066 0)
(-0.0343181 -0.0440697 0)
(-0.035258 -0.0416196 0)
(-0.0339619 -0.0359925 0)
(-0.0280196 -0.0254796 0)
(-0.00740493 -0.00860042 0)
(0.0114016 0.0133277 0)
(0.0239169 0.026278 0)
(0.0451678 0.0355081 0)
(0.0574609 0.0228911 0)
(0.0663353 -0.00342799 0)
(0.141801 0.0773751 0)
(-0.616726 0.282262 0)
(1.14361 0.464216 0)
(0.553211 0.304781 0)
(0.546293 0.245965 0)
(0.500609 0.213896 0)
(0.399699 0.187359 0)
(0.314373 0.144773 0)
(0.264985 0.0979834 0)
(0.238174 0.0560813 0)
(0.223736 0.0199337 0)
(0.203231 -0.0124989 0)
(0.181288 -0.0382416 0)
(0.158843 -0.056342 0)
(0.135944 -0.0673733 0)
(0.112747 -0.0727078 0)
(0.089703 -0.073999 0)
(0.0674238 -0.0728393 0)
(0.0459025 -0.0710871 0)
(0.0224695 -0.0731957 0)
(-0.00335856 -0.0916514 0)
(-0.00087093 -0.134523 0)
(-0.00659462 -0.108845 0)
(-0.00621756 -0.0851799 0)
(-0.0160857 -0.0605717 0)
(-0.0307023 -0.0518437 0)
(-0.0404881 -0.048305 0)
(-0.0484998 -0.0450973 0)
(-0.0575049 -0.0422921 0)
(-0.0683765 -0.0399699 0)
(-0.0813819 -0.0371236 0)
(-0.0966976 -0.0321917 0)
(-0.114569 -0.0233805 0)
(-0.135501 -0.00873209 0)
(-0.158417 0.0124915 0)
(-0.179638 0.0370468 0)
(-0.214104 0.0622672 0)
(-0.266639 0.0843461 0)
(-0.340399 0.0968259 0)
(-0.418842 0.0961485 0)
(-0.501033 0.0830742 0)
(-0.803054 0.0544474 0)
(-0.287593 0.136378 0)
(0.17639 0.212715 0)
(0.259942 0.199265 0)
(0.25093 0.159145 0)
(0.250658 0.111602 0)
(0.253719 0.0662525 0)
(0.252538 0.027719 0)
(0.244507 -0.00298259 0)
(0.228332 -0.0250708 0)
(0.206547 -0.0390963 0)
(0.181745 -0.0466865 0)
(0.15596 -0.049554 0)
(0.130691 -0.04929 0)
(0.106893 -0.0471761 0)
(0.0837349 -0.0441925 0)
(0.0560501 -0.0427582 0)
(0.0259999 -0.0534134 0)
(0.0241272 -0.10987 0)
(0.00323775 -0.0780803 0)
(-0.00242618 -0.0539855 0)
(-0.0190519 -0.0318378 0)
(-0.0428227 -0.0294326 0)
(-0.0560835 -0.0299304 0)
(-0.0653225 -0.0293383 0)
(-0.0757448 -0.0287907 0)
(-0.0885729 -0.0286136 0)
(-0.103895 -0.0276331 0)
(-0.120925 -0.0237415 0)
(-0.137059 -0.0143961 0)
(-0.149457 0.00256299 0)
(-0.15783 0.0257492 0)
(-0.163877 0.055476 0)
(-0.170659 0.0879266 0)
(-0.179939 0.114934 0)
(-0.187559 0.123079 0)
(-0.170263 0.089969 0)
(-0.0966076 -0.0355281 0)
(-0.295827 -0.296068 0)
(-0.146854 0.302008 0)
(0.075493 0.21971 0)
(0.0957851 0.164588 0)
(0.132947 0.135182 0)
(0.172891 0.102056 0)
(0.203296 0.0733261 0)
(0.219272 0.0546472 0)
(0.221741 0.0468843 0)
(0.214868 0.0455581 0)
(0.20241 0.0441754 0)
(0.186848 0.0435852 0)
(0.169651 0.0441451 0)
(0.151935 0.0457246 0)
(0.134612 0.0484534 0)
(0.117588 0.0559113 0)
(0.0974342 0.0679554 0)
(0.0765966 0.0324597 0)
(0.0612618 -0.0857 0)
(-0.000445815 -0.0479752 0)
(-0.0255169 -0.00221301 0)
(-0.0426866 0.0720871 0)
(-0.0629656 0.0615646 0)
(-0.0759184 0.0484361 0)
(-0.0856373 0.0535648 0)
(-0.0939442 0.0636921 0)
(-0.101067 0.0727564 0)
(-0.107182 0.0797063 0)
(-0.112687 0.082702 0)
(-0.117261 0.0777496 0)
(-0.118524 0.0711887 0)
(-0.113259 0.0705837 0)
(-0.0999721 0.0797922 0)
(-0.079948 0.0988038 0)
(-0.0546506 0.119276 0)
(-0.0255174 0.129385 0)
(0.0197469 0.110106 0)
(0.144283 0.0163742 0)
(-0.187512 -0.208757 0)
(-0.287801 -0.445678 0)
(-0.536645 -0.117933 0)
(-0.390226 0.180032 0)
(-0.204219 0.0558244 0)
(-0.0949124 0.0156404 0)
(0.0322621 -0.00505222 0)
(0.106913 -0.0406041 0)
(0.162604 -0.0749577 0)
(0.197304 -0.107082 0)
(0.214004 -0.137469 0)
(0.218556 -0.166234 0)
(0.215155 -0.189425 0)
(0.206337 -0.209104 0)
(0.194049 -0.22664 0)
(0.179752 -0.242761 0)
(0.164494 -0.257488 0)
(0.149921 -0.269868 0)
(0.140092 -0.279103 0)
(0.130862 -0.290644 0)
(0.0973705 -0.31654 0)
(-0.0362771 -0.330139 0)
(-0.0694294 -0.308 0)
(-0.0780921 -0.290034 0)
(-0.07907 -0.28707 0)
(-0.0922994 -0.285566 0)
(-0.10831 -0.282752 0)
(-0.121118 -0.280438 0)
(-0.1302 -0.277827 0)
(-0.135519 -0.272371 0)
(-0.136746 -0.260575 0)
(-0.133587 -0.238224 0)
(-0.124693 -0.209909 0)
(-0.105504 -0.175369 0)
(-0.0723516 -0.136815 0)
(-0.0273279 -0.0943769 0)
(0.0531588 -0.0500067 0)
(0.11916 -0.0542238 0)
(0.18056 -0.0916469 0)
(0.226451 -0.161977 0)
(-0.0887763 -0.252533 0)
)
;

boundaryField
{
    floor
    {
        type            noSlip;
    }
    ceiling
    {
        type            noSlip;
    }
    sWall
    {
        type            noSlip;
    }
    nWall
    {
        type            noSlip;
    }
    sideWalls
    {
        type            empty;
    }
    glass1
    {
        type            noSlip;
    }
    glass2
    {
        type            noSlip;
    }
    sun
    {
        type            noSlip;
    }
    heatsource1
    {
        type            noSlip;
    }
    heatsource2
    {
        type            noSlip;
    }
    Table_master
    {
        type            noSlip;
    }
    Table_slave
    {
        type            noSlip;
    }
    inlet
    {
        type            fixedValue;
        value           uniform (0.277164 -0.114805 0);
    }
    outlet
    {
        type            zeroGradient;
    }
}


// ************************************************************************* //
