/*--------------------------------*- C++ -*----------------------------------*\
  =========                 |
  \\      /  F ield         | OpenFOAM: The Open Source CFD Toolbox
   \\    /   O peration     | Website:  https://openfoam.org
    \\  /    A nd           | Version:  6
     \\/     M anipulation  |
\*---------------------------------------------------------------------------*/
FoamFile
{
    version     2.0;
    format      ascii;
    class       volScalarField;
    location    "2900";
    object      alphat;
}
// * * * * * * * * * * * * * * * * * * * * * * * * * * * * * * * * * * * * * //

dimensions      [1 -1 -1 0 0 0 0];

internalField   nonuniform List<scalar> 
459
(
0.00132546
0.00145325
0.00148174
0.00155507
0.00162385
0.00168914
0.00175437
0.0018139
0.00185366
0.00186685
0.00184762
0.00179239
0.00169995
0.00157546
0.00143411
0.000599855
0.000724506
0.000815382
0.00081403
0.000787283
0.00075103
0.000704428
0.000658015
0.000615902
0.000578547
0.000545495
0.000516155
0.000490079
0.000466686
0.000445147
0.000424418
0.000403042
0.000389672
0.000357005
0.0018023
0.00452665
0.00438064
0.00511494
0.00583908
0.00655143
0.00715287
0.00762717
0.00804475
0.00837234
0.00856803
0.00858873
0.00836922
0.00774131
0.00601626
0.00147394
0.00086235
0.000636621
0.0013408
0.00187257
0.0022629
0.00247364
0.00246524
0.00196294
0.00168865
0.00149415
0.00134557
0.00122782
0.0011321
0.00104957
0.000972461
0.000897301
0.000830277
0.000770634
0.000916379
0.000473264
0.0021949
0.00618627
0.00547028
0.00684377
0.00754164
0.00806169
0.0084642
0.0088066
0.00916804
0.00953145
0.00985008
0.0100701
0.0101296
0.00992181
0.00914347
0.00692016
0.00151416
0.00123022
0.00180167
0.00233791
0.00282949
0.00316685
0.00308125
0.00100021
0.000882424
0.000787673
0.000711234
0.000649014
0.000597841
0.000555432
0.000520338
0.000491995
0.00053185
0.000615859
0.00103955
0.000552541
0.00256809
0.00786119
0.00553052
0.00724901
0.00785013
0.00807512
0.0082414
0.00845322
0.00876675
0.00916116
0.00957402
0.00993893
0.0101839
0.0102185
0.00997793
0.00910821
0.00618593
0.00178533
0.00222362
0.00289225
0.00355684
0.00409028
0.00441249
0.00412272
0.00112477
0.00102394
0.000951755
0.000896231
0.00084838
0.000804773
0.000762742
0.000718684
0.000667753
0.000625993
0.000645375
0.00121856
0.000611296
0.00294617
0.00998561
0.00611736
0.007044
0.00779626
0.00787238
0.00784817
0.00800632
0.00829425
0.00871436
0.00918377
0.00961293
0.00989601
0.00997107
0.00983285
0.00944311
0.00857405
0.00712742
0.00663103
0.00648026
0.0064361
0.00639905
0.00631239
0.00603694
0.00505588
0.00458518
0.00430815
0.00409135
0.0038645
0.00353933
0.00311556
0.00261473
0.00206906
0.00153003
0.0011311
0.00119276
0.000801068
0.000744641
0.000889592
0.000996156
0.00334514
0.0122879
0.00836332
0.00718427
0.00773303
0.00785571
0.00780261
0.00790298
0.00813001
0.00851936
0.0090209
0.00950006
0.0098065
0.00984984
0.00964546
0.00929819
0.00892108
0.00857309
0.00838103
0.00821266
0.00799523
0.00773473
0.00744037
0.00708858
0.00661218
0.00620164
0.00584946
0.00552196
0.00519682
0.00484258
0.00439625
0.00384103
0.00318108
0.0024625
0.00183865
0.00136934
0.0010724
0.000945286
0.00136794
0.00104494
0.00369876
0.0138452
0.0114985
0.00922928
0.00884434
0.00851387
0.00817483
0.00804353
0.00819344
0.00861117
0.00918268
0.00971686
0.010023
0.00999829
0.00968526
0.00927749
0.00902062
0.00899117
0.00900257
0.00885435
0.00852857
0.00809305
0.00759984
0.00708035
0.00656707
0.00612034
0.00573344
0.00538718
0.0050761
0.00480352
0.00456474
0.0041835
0.00365118
0.00301604
0.00242313
0.0018911
0.00154228
0.00147362
0.00154579
0.00120417
0.00375694
0.0120573
0.0109006
0.0100746
0.00928277
0.00849868
0.00802345
0.00797848
0.00834535
0.00900126
0.00973757
0.0103072
0.0105182
0.0103142
0.00981679
0.0093289
0.00914169
0.00918963
0.00907171
0.00867012
0.00807579
0.0073894
0.00669663
0.00607106
0.0055568
0.00515282
0.00482951
0.00456803
0.00436624
0.00423015
0.00416606
0.00412324
0.00380815
0.00338755
0.00303251
0.00288487
0.00308935
0.00375827
0.00472508
0.00185752
0.00364658
0.00430308
0.00474241
0.00485548
0.0051152
0.00568434
0.00657794
0.00773097
0.00898955
0.0101434
0.0109706
0.0112893
0.0110595
0.0104211
0.00969994
0.0092668
0.00900085
0.00869525
0.00817549
0.00744646
0.00662011
0.00582047
0.0051413
0.00461782
0.00423122
0.00393953
0.00370686
0.00351203
0.0033424
0.00318811
0.00304114
0.00290651
0.00279998
0.00273113
0.00272243
0.00275847
0.0027553
0.0026386
0.00245132
0.0017086
0.00172979
0.00438999
0.00793114
0.0102193
0.01172
0.0126315
0.0130036
0.0129179
0.0124645
0.0117413
0.0107229
0.00969409
0.00891097
0.00836455
0.00781253
0.00713036
0.00634137
0.00552968
0.00478139
0.00417542
0.00373168
0.0034186
0.00319441
0.00302701
0.00289732
0.00279604
0.0027199
0.00267004
0.00265199
0.00266284
0.00268967
0.00272907
0.00276808
0.0027701
0.0026801
0.00247925
0.00218158
0.00137684
0.00261841
0.00807322
0.0110478
0.0118093
0.0120298
0.0118403
0.0112737
0.0104694
0.00956131
0.0086743
0.00783837
0.0071371
0.00655446
0.00597129
0.00533881
0.00470285
0.00411828
0.00362234
0.00322949
0.00292917
0.00271577
0.0025692
0.00247322
0.00241807
0.00239758
0.00240634
0.00243752
0.0024857
0.00255936
0.002653
0.0027622
0.00287823
0.00298177
0.00305555
0.00304271
0.00304549
0.00275408
0.00139394
0.00231608
0.0024573
0.00255878
0.00273862
0.00262257
0.00251902
0.00243434
0.00231299
0.00215011
0.00195518
0.0017385
0.001519
0.00132309
0.00116628
0.0010486
0.000962109
0.000898465
0.000851917
0.000819375
0.000799199
0.00079008
0.000790459
0.000797555
0.000810388
0.000828383
0.0008513
0.00087918
0.000912378
0.000951718
0.00099825
0.00105133
0.00111152
0.00117931
0.00125528
0.00133942
0.00145109
0.00148294
0.0014463
0.00134913
0.00124446
)
;

boundaryField
{
    floor
    {
        type            compressible::alphatWallFunction;
        Prt             0.85;
        value           nonuniform List<scalar> 
29
(
0.000202063
8.43198e-05
0.000102758
0.000115957
0.000115762
0.000111896
0.000106631
9.98166e-05
9.29757e-05
8.67178e-05
8.11229e-05
7.61352e-05
7.16764e-05
6.76869e-05
6.40851e-05
6.07486e-05
5.75183e-05
5.41658e-05
5.20576e-05
4.68667e-05
4.68661e-05
6.51008e-05
7.72027e-05
8.60318e-05
0.000202061
8.43188e-05
8.98025e-05
0.000174277
0.000248933
)
;
    }
    ceiling
    {
        type            compressible::alphatWallFunction;
        Prt             0.85;
        value           nonuniform List<scalar> 
43
(
0.000317775
0.000335823
0.000348726
0.000371617
0.000357023
0.000343916
0.00033315
0.00031764
0.000296677
0.000271358
0.000242885
0.000213638
0.000187133
0.000165597
0.000149219
0.000137044
0.000128005
0.000121346
0.000116665
0.000113751
0.000112432
0.000112487
0.000113514
0.000115368
0.000117963
0.000121257
0.000125251
0.000129988
0.000135574
0.000142147
0.000149602
0.000158003
0.000167401
0.000177862
0.000189364
0.000204504
0.000208798
0.000203859
0.000190687
0.000176382
0.000484494
0.000564082
0.00035604
)
;
    }
    sWall
    {
        type            compressible::alphatWallFunction;
        Prt             0.85;
        value           uniform 0.000316503;
    }
    nWall
    {
        type            compressible::alphatWallFunction;
        Prt             0.85;
        value           nonuniform List<scalar> 6(0.000141504 0.000148351 0.000170466 0.000194107 0.000196425 0.000176035);
    }
    sideWalls
    {
        type            empty;
    }
    glass1
    {
        type            compressible::alphatWallFunction;
        Prt             0.85;
        value           nonuniform List<scalar> 9(0.000182577 0.000245551 0.000296162 0.000343468 0.000390726 0.000439962 0.000483148 0.000490359 0.000477206);
    }
    glass2
    {
        type            compressible::alphatWallFunction;
        Prt             0.85;
        value           nonuniform List<scalar> 2(0.000256477 0.000237008);
    }
    sun
    {
        type            compressible::alphatWallFunction;
        Prt             0.85;
        value           nonuniform List<scalar> 
14
(
0.000187337
0.000204652
0.000208491
0.000218338
0.000227527
0.000236209
0.000244847
0.0002527
0.000257929
0.000259659
0.000257134
0.000249864
0.00023764
0.000221062
)
;
    }
    heatsource1
    {
        type            compressible::alphatWallFunction;
        Prt             0.85;
        value           nonuniform List<scalar> 3(0.000105853 0.000126764 0.000141879);
    }
    heatsource2
    {
        type            compressible::alphatWallFunction;
        Prt             0.85;
        value           nonuniform List<scalar> 4(0.000207613 0.000122867 0.000122866 0.000213022);
    }
    Table_master
    {
        type            compressible::alphatWallFunction;
        Prt             0.85;
        value           nonuniform List<scalar> 9(0.000142446 0.000125738 0.000112105 0.000100964 9.17887e-05 8.41616e-05 7.77798e-05 7.24528e-05 6.81178e-05);
    }
    Table_slave
    {
        type            compressible::alphatWallFunction;
        Prt             0.85;
        value           nonuniform List<scalar> 9(0.000159873 0.000145788 0.000135605 0.000127712 0.000120863 0.000114582 0.000108489 0.000102058 9.45651e-05);
    }
    inlet
    {
        type            fixedValue;
        value           uniform 1.94e-05;
    }
    outlet
    {
        type            zeroGradient;
    }
}


// ************************************************************************* //
