/*--------------------------------*- C++ -*----------------------------------*=========                 |
  \      /  F ield         | OpenFOAM: The Open Source CFD Toolbox
   \    /   O peration     | Website:  https://openfoam.org
    \  /    A nd           | Version:  6
     \/     M anipulation  |
\*---------------------------------------------------------------------------*/
FoamFile
{
    version     2.0;
    format      ascii;
    class       volScalarField;
    location    "2900";
    object      PMV;
}
// * * * * * * * * * * * * * * * * * * * * * * * * * * * * * * * * * * * * * //

dimensions      [0 0 0 0 0 0 0];

internalField   nonuniform List<scalar> 
459
(
1.655107699166694
1.4392468488986598
1.4130502797750715
1.390107670454838
1.3741385154133674
1.3652795907820154
1.362628250846205
1.3665667066501586
1.3763895662902137
1.3937268830324696
1.4190108581996448
1.454812101790722
1.502652539359951
1.5384364004367699
1.5432135653480905
1.6076872297760705
1.59479480157899
1.5900194884329673
1.5914521014353797
1.594317278449219
1.5967048758219755
1.5954755502120388
1.5909474744721732
1.5902766207747816
1.5910996483647752
1.592490306500863
1.5943223282348846
1.5971750324567073
1.6004801232771932
1.6057062651678566
1.6150699226858583
1.6243975946117357
1.6277393843894306
1.639673559798952
1.6173179679807959
1.4602660138727588
1.4521173687987257
1.4307895705409166
1.4185911022896427
1.4112141773897668
1.409460112010191
1.4115266804433442
1.4161651106246844
1.4245993407657322
1.4393987791414844
1.4631035952855689
1.4979872065479491
1.5298370984363328
1.5307926019203726
1.5307926019203726
1.531270351286258
1.5722719280785553
1.5852439945853551
1.5814234706525099
1.5828979519574158
1.5769990773587377
1.5725106091672412
1.5714459422900702
1.5719630732181984
1.5730736187347594
1.5738581001526168
1.57401326716443
1.5747219103466161
1.5755836984943652
1.5771223379149142
1.5796353220016532
1.5872943288885597
1.6057773258461587
1.611029489318985
1.6034758522398775
1.6597821427107553
1.463208977161247
1.4875245410547573
1.478073062757905
1.4755715347666392
1.4747467369668956
1.4762734065543575
1.4771543768948774
1.4729109746807103
1.4654678218263921
1.4622232946631977
1.4683138767175512
1.486583258955466
1.517678653330548
1.5279260725069572
1.5303148509698477
1.531748099065688
1.4808251830778265
1.520641051466564
1.5332240949696836
1.5421804541638626
1.552230057866893
1.5590882908198063
1.5624911436424103
1.5705766951071538
1.5762342986977496
1.578829070113727
1.579958729783394
1.5809842629007262
1.5809733052404837
1.5800506153292662
1.5757208917975436
1.577564586968791
1.59501069360196
1.587258208519446
1.5418980531690956
1.7357271578398255
1.4692987999417182
1.5158316768015987
1.5260170574887302
1.5434997305137894
1.5595090898767636
1.5714488704914256
1.5668291477208607
1.5404341832744461
1.5035761594039176
1.4732882023942082
1.4573868791973366
1.460737143642198
1.481974225402229
1.5133351931178338
1.531270351286258
1.5151861845690908
1.4747915417032205
1.4738097947791087
1.5014328948898625
1.5273450423008426
1.549043003373757
1.5677287202554888
1.5813793277581973
1.5862431393959533
1.5847348671349122
1.5842091535998837
1.584881686667064
1.586301179443443
1.5897147300876067
1.5964828574571712
1.6086126256363353
1.6308998525277145
1.6248207237781973
1.6100184698293976
1.5675734782127753
1.4984227568807318
1.8249871326347311
1.4894781902925247
1.5428618337963425
1.5719280298600993
1.620268419342108
1.6743889206727132
1.6983708185454247
1.6512270313095732
1.5797968410471521
1.5107225554361965
1.4612075772494733
1.4345005695787567
1.4316302724207326
1.448566061342562
1.4779717419631304
1.5040912280569372
1.5106786741624663
1.5077495444095792
1.516333575752151
1.5403838006642872
1.5699272347421005
1.596790511448883
1.6197114002714432
1.636336495466019
1.6460781954959307
1.64871162652456
1.6493168343592284
1.6490472220277066
1.647663443225872
1.6461564153278252
1.6460092231601962
1.6469753329165493
1.6487834779495159
1.6349360802095498
1.6088117209613317
1.5502004798104592
1.5436916276688697
1.673082473374075
1.6599541824878865
1.4981675430100805
1.9150549164059465
1.5323990467039195
1.595850424401588
1.6258838412967345
1.6945541095797867
1.723175843693909
1.7103454326495136
1.6307672108588527
1.5531367883850666
1.4818008710709227
1.4291399738662838
1.4027069532831442
1.4034710292748946
1.42685123700132
1.464353094692903
1.5049229938456572
1.5354928694686272
1.556966552942189
1.5807281418771502
1.611028575529646
1.6301263183765073
1.64492420124596
1.6568565594980096
1.6664015112373864
1.6740368622489796
1.6802401790176196
1.6845345670974736
1.6873973934841398
1.6888287768044736
1.6873973934841398
1.6840574216464876
1.67928584648811
1.6708281665891014
1.6455302064353965
1.611217413233071
1.5499740934569473
1.5471384107041743
1.5629770908754856
1.5622056574513195
1.5744915639218815
2.004304661305843
1.6280253355003798
1.7469303785143846
1.7214968322591204
1.7175358947290822
1.6910034729761645
1.637425869978937
1.5644583774996077
1.4849906006917981
1.4171906691953764
1.3737875112401394
1.3615893424920413
1.3801810231899119
1.4226386491023189
1.4799477663786127
1.5414622619392853
1.583333746866923
1.6067322815573015
1.6282167751114138
1.64683346464869
1.6630608738365507
1.6759456141154658
1.6864431268589004
1.6940770108236292
1.6998020471008515
1.7036185564899502
1.706480842468324
1.7079119544118893
1.7074349194029117
1.7045726609942595
1.6988478969981078
1.6916914834096002
1.6835802739955172
1.6718534996643306
1.6315738031692875
1.5741238163699298
1.5518595755913185
1.5416160199796334
1.5160021086008686
1.6004217517053916
2.136574858998484
1.946730949546736
1.9025769068877667
1.803108973106076
1.7438184684128843
1.6613955767175428
1.5569030469901037
1.4503060520213602
1.3624603363724002
1.3089766748930163
1.295957370890099
1.322077200952834
1.3789079577655001
1.455806091300456
1.5458776380083912
1.5881093124736727
1.6205782896561773
1.647310775409221
1.6673559599983299
1.6831031241466392
1.695508300348153
1.7050497098078485
1.7122051653447936
1.7169751784416794
1.7207910197722662
1.7226988836605175
1.72365280134732
1.723175843693909
1.7212679893030123
1.7179291529236207
1.712682177169198
1.7050497098078485
1.696939569608287
1.6873973934841398
1.6764227966774212
1.665447053987959
1.6451673261837372
1.6337181480149952
1.5734712575995002
1.4894596635609523
2.333754748617857
2.202279945675748
2.0368185991691643
1.8554458910430145
1.646606814105292
1.4305943672665342
1.2609355735431673
1.1574931499338559
1.1241719328816948
1.1527001245129036
1.2282793030098995
1.3356534081753328
1.4581284971131534
1.5413027188439374
1.5967048758219755
1.64062824002979
1.6692648319884653
1.6883516512495724
1.7031415008036996
1.714113198649527
1.7222219212493786
1.7240343890881074
1.7231987186950357
1.7213321700359643
1.7189487562744645
1.7155364812681066
1.710680410750477
1.7041265440634552
1.6960711874540726
1.686938948627114
1.6754040591486834
1.6632698852637446
1.65153392989213
1.6372529919571692
1.6216303698504064
1.607368048150733
1.5983290498805132
1.5931763215031236
1.5826507688609528
1.552285070872101
-2.9741791476074706
-1.8369669655596121
-1.1378430313139019
-0.3897446972934707
0.17119845760531915
0.6052115807800227
0.9571163861217027
1.218078001828715
1.381187570298233
1.5059474912247293
1.5799907448622743
1.6306036992771702
1.6516279991427893
1.668221275890139
1.6804694182853381
1.6894343433068515
1.6948123321819668
1.6979534679267987
1.6987951491104627
1.6976709433226604
1.6956200437041626
1.6929865886114885
1.6891125930835733
1.6843317917587133
1.6791054157945868
1.6735583302225217
1.6679469209035853
1.6631057341656879
1.6589422166773606
1.656330699396348
1.654674313042542
1.6531674501810194
1.6528523193143994
1.6549413122900716
1.6654894953071686
1.7003514606563888
1.77218235990896
1.616078995139863
-2.4666163637691345
-0.9985475146308346
0.04512888593866683
0.5772339794814123
0.9015753885729633
1.1043324644633015
1.2579522312548637
1.3765257659549472
1.4684270328585798
1.5368433901771674
1.582981083233769
1.615315592935367
1.637866120489156
1.6544035267603896
1.6652382105093668
1.672588943963323
1.677436224539681
1.6804381903491932
1.6819010530572813
1.6827935205950675
1.6829129191176462
1.6817199337918927
1.6806735590121504
1.6793083450019517
1.677210645109823
1.675518870681809
1.6740026436766953
1.673124417025122
1.6739673986493517
1.6769476729572075
1.6844115171924015
1.6958157570622039
1.7078228496508898
1.718013904418308
1.7294237908682624
1.767757101546441
1.7030139927044303
1.6544397800518305
-0.8556866401490972
-0.9945784512100979
-0.8742530883188374
0.3750349683726573
0.8884034322292556
1.1045572089390128
1.2371026952600692
1.339724093949549
1.4226619798685356
1.4895086001452593
1.5438235542725682
1.5856430586279053
1.6150088524352932
1.635493893888471
1.6485506912014969
1.65642753366985
1.6602296622485748
1.6616854191917876
1.6619419793842638
1.6615077950927015
1.6611855558159498
1.661017571419336
1.6611866086903138
1.6611511294985077
1.6613910075365041
1.662434861771045
1.6633938649745341
1.6650093066657181
1.6681696614226997
1.672366760917531
1.6793015531356867
1.6912250211193574
1.7124757997861213
1.750494856919802
1.7780097882150658
1.7842062704441046
1.7510446117979055
1.7097924013356682
1.6678700994034668
1.6730213397872504
)
;

boundaryField
{
    ".*"
    {
        type            zeroGradient;
    }
}


// ************************************************************************* //
