/*--------------------------------*- C++ -*----------------------------------*=========                 |
  \      /  F ield         | OpenFOAM: The Open Source CFD Toolbox
   \    /   O peration     | Website:  https://openfoam.org
    \  /    A nd           | Version:  6
     \/     M anipulation  |
\*---------------------------------------------------------------------------*/
FoamFile
{
    version     2.0;
    format      ascii;
    class       volScalarField;
    location    "2900";
    object      PPD;
}
// * * * * * * * * * * * * * * * * * * * * * * * * * * * * * * * * * * * * * //

dimensions      [0 0 0 0 0 0 0];

internalField   nonuniform List<scalar> 
459
(
59.32658862343706
47.60719790994467
46.20212891108677
44.979135079528
44.1325973692819
43.6647941691454
43.5250509877392
43.73267792014276
44.25167710775143
45.17155031433095
46.521070085518026
48.44579933918736
51.03675832029784
52.98353464470415
53.24373227790674
56.754874786415556
56.05345964627386
55.79350613851638
55.87150056146433
56.02746797998016
56.157417620135504
56.090511596928295
55.844028310659716
55.807505396976914
55.85231284531238
55.92801876694648
56.02774284461813
56.18300449133889
56.362851386977546
56.647144422720004
57.15620106983786
57.66283698761859
57.84421936049855
58.49134473830382
57.27834991136261
48.740219275087696
48.30043622660978
47.152669022826146
46.49859430320268
46.103977653891704
46.01025473698234
46.12067968073496
46.36873997859142
46.820520171712445
47.61537076845335
48.893512344251945
50.783374791875325
52.51528668543879
52.56730593940109
52.56730593940109
52.59331642271843
54.826896064895266
55.53347758060558
55.32540793352929
55.40571348451751
55.084414494193005
54.83989925845321
54.78189639917277
54.81006975401609
54.870571399164774
54.91330844226949
54.92176155166356
54.960366251945096
55.007312892367686
55.091128865399305
55.228013074983835
55.645126840335436
56.65100920335036
56.93659484972416
56.52582772625209
59.57913325009834
48.899206757007114
50.21561081570938
49.703366457082005
49.5679034367378
49.52324979311947
49.60590628711168
49.65361195546794
49.42388342886078
49.0212897924279
48.8459484053941
49.17517416485672
50.16456696663863
51.853623744145885
52.41125532068544
52.5412960234923
52.6193274629853
49.85245568316004
52.014788120410316
52.699692205789894
53.18745824896589
53.73492921324344
54.10859741482031
54.29400516080138
54.73453908574968
55.04275418134472
55.184097097674055
55.24562853717275
55.30148623868321
55.300889418708984
55.25063334821357
55.014786516327476
55.11521929314413
56.065210437818365
55.64316002731725
53.17207606623678
63.64502754118385
49.2284447623784
51.75316010563759
52.30734485843831
53.25932014424813
54.13152504210207
54.78205592873253
54.53036206655478
53.09234246307424
51.086936481667856
49.44429980898025
48.58475854691701
48.76566568409495
49.91471913137231
51.61739075409691
52.59331642271843
51.7180528917462
49.525675331597476
49.472531439132986
50.970505040784055
52.37962776190328
53.561294914770265
54.5793742886464
55.32300368366073
55.587886493609155
55.5057518751063
55.47712229939798
55.51374733303488
55.591047016982074
55.77691369535853
56.14533466266342
56.80519424953288
58.01569255147392
57.68580711295754
56.88163093197383
54.57091613390165
50.80702507198697
68.29302109107005
50.3215727515632
53.22457309615102
54.808160596775735
57.43862164906539
60.36686625350662
61.65485294112144
59.11677413453833
55.23681076217608
51.47533458662175
48.79107655899902
47.35201107126185
47.19781434399244
48.108978839726696
49.69787876805957
51.11492099540474
51.47294891575332
51.31372352531076
51.78045876025099
53.08959831147418
54.69915546468944
56.16207814165786
57.40836758274022
58.310498091262886
58.8381877602331
58.980702650706036
59.01344659869975
58.99885998325419
58.92398461755457
58.84242167665713
58.834454353550136
58.88674529713024
58.98459024101631
58.234580032490676
56.81601976428938
53.62435437447581
53.269773159824084
60.29650345301495
59.58842397503478
50.79316688287086
72.77420176730912
52.65476940894367
56.11091466984043
57.74351486170614
61.45035894393458
62.978791041375146
62.29512312928858
58.00849735726451
53.78433055460161
49.90532490591746
47.064111034312496
45.64982126342952
45.69056959888872
46.94129569879266
48.961036756786484
51.16011518189186
52.82323308382006
53.99299311701658
55.287536288076055
56.93654517396761
57.97373021579876
58.77571791551699
59.42109807988879
59.93638800786397
60.34790692445502
60.681765750479485
60.9126223476085
61.066396512528094
61.1432436420915
61.066396512528094
60.88698308912174
60.630433129352895
60.17504630173489
58.80852453487905
56.94681075201199
53.61202070680697
53.45753580813468
54.32048239089604
54.2784501934508
54.9478177608944
76.94479875385395
57.85973657086057
64.23740730540442
62.88947103614656
62.67858027972542
61.25994747562744
58.36954421506856
54.40119112488812
50.078214435620716
46.4236248961769
44.11403698489546
43.470327327023675
44.4524324937748
46.71541435432193
49.80491755749423
53.1483391090819
55.42944755562675
56.702944252302245
57.87012478845209
58.87906713457174
59.756145372729975
60.450681800057005
61.015150222794894
61.42478297820015
61.73148534635966
61.9356944801436
62.088711340312905
62.16517394269989
62.13968983216342
61.98671357743983
61.68040031148094
61.29685652445174
60.86134093656185
60.23029593955945
58.05224936266542
54.927783975944045
53.71474443950115
53.156714061325246
51.76242989687207
56.35967544914023
82.51970184212739
74.2881719075269
72.16834363848544
67.17027170195105
64.07308843387742
59.6662526653287
53.98953297326172
48.20276871079317
43.5162049373304
40.725859960951496
40.055574369146186
41.40403796227532
44.38499822875235
48.499436699863026
53.38885352532735
55.689503118041856
57.45545123538934
58.90489935977095
59.98786365427994
60.83569590082857
61.5015014633051
62.01221808841014
62.39437492290538
62.64870644808703
62.85190982232014
62.95342232340842
63.00415597481497
62.978791041375146
62.87729357036553
62.699529371882065
62.419824164701446
62.01221808841014
61.578191548871985
61.066396512528094
60.47636877461546
59.8849024000656
58.78888006304886
58.16854293546086
54.8922340974091
50.320567777923856
89.26638780528458
84.98517452046036
78.38651279887901
69.83526166977309
58.86680005060788
47.14218790086979
38.27197765614608
33.19333959232766
31.625474033623448
32.96563467620568
36.6364464688966
42.11059213719873
48.62479513532214
53.13964910040657
56.157417620135504
58.54306628958247
60.09078471362169
61.117630920771674
61.91017991554561
62.49615056771129
62.92804983171454
63.02444643009044
62.98000763313908
62.880708916504375
62.753833011315606
62.572033365494775
62.31300432522822
61.9628598495736
61.53166528265136
61.04177839847529
60.42152648727773
59.76742583697445
59.1333720629678
58.36017449937601
57.51258728328537
56.737518001530425
56.24580508478111
55.96536248692911
55.392251324175945
53.73792646496425
98.99487646326587
68.90261572194338
32.26442764669369
8.163970047654317
5.607492264983705
12.680847283786647
24.347380194851397
36.13136072229684
44.50576789416992
51.2157865146996
55.24737233250192
57.999627447067965
59.13845942086524
60.034523871056116
60.694094709187354
61.17574708658177
61.46420029868926
61.6325014315557
61.67757583482176
61.61736928251794
61.50748986818789
61.36631715569945
61.15847790243353
60.901726619375616
60.62072673522745
60.32213441510463
60.019730751692606
59.75856654713206
59.533770283772625
59.39268331035244
59.30316375712229
59.22170312624681
59.20466460256389
59.317595486076236
59.88719198262791
61.7608951770657
65.56393810371424
57.211033003025136
92.69874587085059
26.05632650250155
5.042162817962762
11.980921627015562
22.16230667077474
30.709191406469785
38.121419763443896
44.258884713228156
49.18129390741492
52.89677854969916
55.41024097554854
57.16955103565629
58.39340407765529
59.28852665853309
59.873635646313616
60.269917943276276
60.53091345252059
60.69241524319848
60.77107685023298
60.819054383505545
60.82547231715876
60.76133902051289
60.70507329332766
60.63164342575226
60.5187733457024
60.42770779289658
60.346064084753415
60.29876275487642
60.344165951661786
60.50462011907621
60.906010566465184
61.51797788285368
62.16041404962092
62.704043818189135
63.310767248605686
65.33238950156114
61.903359804050254
59.290486335519326
20.451197816364058
25.889753757645437
21.133087670608063
7.92842475106049
21.662316406124745
30.719497322324344
37.075589229315725
42.323161672931576
46.71666475000633
50.323222324395914
53.27695949642528
55.55520909751627
57.15288240169244
58.2648214589225
58.971994928253814
59.39791593166924
59.60330020234838
59.68190034961814
59.69575052992824
59.67231108186181
59.65491377535378
59.64584409381087
59.654970620437545
59.653055079446155
59.66600598291662
59.72235651361514
59.77411688283609
59.86128615285078
60.03174089901757
60.25794847737166
60.631278061298374
61.271833327884
62.408814064730436
64.42540388422559
65.8682291340767
66.19099175308313
64.4543777646914
62.265598576277185
60.01558842194349
60.2932104470493
)
;

boundaryField
{
    ".*"
    {
        type            zeroGradient;
    }
}


// ************************************************************************* //
