/*--------------------------------*- C++ -*----------------------------------*\
  =========                 |
  \\      /  F ield         | OpenFOAM: The Open Source CFD Toolbox
   \\    /   O peration     | Website:  https://openfoam.org
    \\  /    A nd           | Version:  6
     \\/     M anipulation  |
\*---------------------------------------------------------------------------*/
FoamFile
{
    version     2.0;
    format      ascii;
    class       surfaceScalarField;
    location    "400";
    object      phi;
}
// * * * * * * * * * * * * * * * * * * * * * * * * * * * * * * * * * * * * * //

dimensions      [1 0 -1 0 0 0 0];

internalField   nonuniform List<scalar> 
852
(
-0.00300248
0.00306171
-0.00404489
0.0010424
-0.00483899
0.000794084
-0.00546797
0.00062897
-0.00590461
0.000436621
-0.00612953
0.000224905
-0.00612341
-6.13707e-06
-0.00586722
-0.000256208
-0.00536345
-0.000503781
-0.00464914
-0.00071433
-0.00379065
-0.000858503
-0.00286781
-0.000922864
-0.00194776
-0.000920063
-0.00103513
-0.000912647
-0.0010333
-0.000692687
0.00069618
-0.000252664
-0.000440028
0.000435947
-0.000688617
0.000930127
-0.000494185
0.00123824
-0.000308116
0.0014172
-0.000178963
0.00150981
-9.26195e-05
0.00155674
-4.69319e-05
0.0015831
-2.63592e-05
0.00159804
-1.49387e-05
0.00160483
-6.79607e-06
0.00160434
4.99066e-07
0.00159406
1.02796e-05
0.00156453
2.95351e-05
0.00149153
7.30045e-05
0.00133503
0.000156507
0.00108223
0.000252808
0.000782746
0.000299488
0.000787572
-0.00212957
0.0053504
-0.00313881
0.00205163
-0.00394621
0.00160147
-0.00455572
0.00123846
-0.00497645
0.000857328
-0.00519954
0.000447983
-0.00520269
-3.00061e-06
-0.0049684
-0.000490521
-0.00450882
-0.000963378
-0.00387093
-0.00135224
-0.00312542
-0.00160403
-0.00234898
-0.00169932
-0.00161514
-0.00165393
-0.00102948
-0.00149833
-0.00084167
-0.00122113
-0.000188984
-0.00065275
-0.000189047
0.000565294
0.000140678
0.000999695
-0.000874436
0.00123373
-0.000922661
0.00144058
-0.000701042
0.00158639
-0.000453934
0.00166032
-0.000252893
0.00166792
-0.000100224
0.00167061
-4.96267e-05
0.00167376
-2.95097e-05
0.0016763
-1.7487e-05
0.00167795
-8.43807e-06
0.00167842
2.83328e-08
0.00167657
1.21283e-05
0.0016683
3.7805e-05
0.00162225
0.000119065
0.00142918
0.000349581
0.00109915
0.000582845
0.000690468
0.000708175
0.00149022
-0.00148337
0.00707664
-0.00235108
0.00291932
-0.00305437
0.00230475
-0.00356183
0.00174592
-0.00391633
0.00121181
-0.00410701
0.000638649
-0.00409515
-1.48717e-05
-0.00385223
-0.000733464
-0.00340718
-0.00140845
-0.00282127
-0.00193817
-0.0021673
-0.00225804
-0.00151144
-0.0023552
-0.000909723
-0.00225567
-0.000428367
-0.0019797
-0.000101777
-0.00154773
0.000161695
-0.000916236
-2.73655e-05
0.00157697
-0.00142623
0.00180863
-0.00110611
0.00178959
-0.00090363
0.00179397
-0.00070543
0.00181447
-0.000474436
0.00179311
-0.000231541
0.00169304
0.00164356
0.0016142
0.00159686
0.00158858
0.00158876
0.00160104
0.00163901
0.00175823
0.00144755
0.000660263
0.00107175
0.00095865
0.000601518
0.00117842
0.00211014
-0.00103307
0.00842359
-0.00172144
0.00360767
-0.00216811
0.00275141
-0.0024813
0.0020591
-0.00269735
0.00142785
-0.00279618
0.000737457
-0.00271408
-9.69857e-05
-0.00242331
-0.00102425
-0.00198563
-0.00184615
-0.0014744
-0.00244943
-0.000952832
-0.00277963
-0.00046361
-0.00284445
-2.90229e-05
-0.00269028
0.000339455
-0.0023482
0.000666052
-0.00187435
0.00106199
-0.00131219
0.0018236
-0.000788986
0.00251454
-0.000681538
0.0020254
-0.000937101
0.00190515
-0.00098587
0.00181857
-0.000817054
0.00175069
-0.000637558
0.00173208
-0.000455834
0.00177151
-0.000270971
0.00189082
-0.000119465
0.00197863
-8.79713e-05
0.00205204
-7.35568e-05
0.00210635
-5.44642e-05
0.00212434
-1.81479e-05
0.00208374
4.04541e-05
0.00196078
0.000122812
0.0017246
0.000236028
0.00132033
0.000404123
0.00118359
0.000797008
0.000865092
0.00127715
0.000369664
0.00167385
0.00250389
-0.000724918
0.00952242
-0.00125207
0.00413482
-0.0013169
0.00281623
-0.00134216
0.00208435
-0.00134017
0.00142585
-0.00125497
0.000652245
-0.00101175
-0.000340213
-0.000644231
-0.00139179
-0.000241202
-0.00224921
0.000134284
-0.00282496
0.000451296
-0.00309668
0.000702642
-0.00309583
0.000893671
-0.00288134
0.00105054
-0.00250508
0.00120511
-0.00202894
0.00141022
-0.00151731
0.00169665
-0.00107543
0.00186924
-0.000854139
0.00176722
-0.000835092
0.00158878
-0.000807439
0.00145402
-0.000682297
0.00135537
-0.000538917
0.00130376
-0.000404222
0.00131203
-0.000279246
0.00138437
-0.000191797
0.00145758
-0.000161184
0.00153251
-0.000148477
0.00160202
-0.000123967
0.00165174
-6.78677e-05
0.00166033
3.18716e-05
0.00160908
0.000174064
0.00148892
0.000356198
0.00130282
0.000590231
0.00114238
0.000957455
0.000967754
0.00145179
0.000569264
0.00207235
0.000420082
0.00265308
-0.00113678
0.00155667
-0.00159443
0.000457454
-0.00154131
-0.000636243
0.0105831
-0.00100585
0.00450442
-0.000550479
0.00236084
-0.000136512
0.00167037
0.000182484
0.00110685
0.000567765
0.000266961
0.00104166
-0.000814114
0.00144946
-0.00179961
0.00173196
-0.00253174
0.00188054
-0.00297357
0.00191747
-0.00313365
0.00187246
-0.00305086
0.00177259
-0.00278149
0.00165304
-0.00238555
0.00154824
-0.00192416
0.00148663
-0.00145571
0.00146496
-0.00105378
0.00140723
-0.000796409
0.00125446
-0.000682335
0.00105444
-0.000607423
0.00088852
-0.000516376
0.000774704
-0.000425102
0.000717896
-0.000347412
0.000722789
-0.000284135
0.00077744
-0.000246442
0.000853543
-0.000237281
0.000940283
-0.00023521
0.00103197
-0.000215644
0.00112101
-0.000156898
0.0011905
-3.76088e-05
0.00122318
0.000141391
0.00122219
0.000357197
0.00119679
0.00061564
0.00120143
0.00095283
0.00129057
0.00136265
0.00146725
0.00189568
0.00194636
0.00217398
0.00221006
0.00129298
0.00181714
0.00085039
0.00033963
-0.000683475
0.0117368
-0.000569148
0.00439008
0.000618502
0.00117319
0.00147835
0.000810518
0.00217995
0.000405256
0.00288162
-0.000434713
0.00343969
-0.0013722
0.00374123
-0.00210118
0.00378825
-0.0025788
0.00362344
-0.00280882
0.00330484
-0.0028151
0.00289328
-0.00263933
0.00244302
-0.00233126
0.0020022
-0.00194475
0.00160844
-0.00153041
0.00128095
-0.00112822
0.00101903
-0.000791869
0.000792096
-0.000569473
0.000565832
-0.000456072
0.000356175
-0.000397766
0.00019426
-0.000354459
9.0708e-05
-0.000321546
4.35794e-05
-0.000300278
4.85831e-05
-0.000289132
9.25288e-05
-0.000290379
0.000157644
-0.000302387
0.000234847
-0.000312403
0.000323962
-0.000304748
0.000429288
-0.000262214
0.000554719
-0.000163028
0.000680025
1.60959e-05
0.00079655
0.000240683
0.000923751
0.00048845
0.00110482
0.000771769
0.00139587
0.00107162
0.00186714
0.00142442
0.00259786
0.00144327
0.00318091
0.000709943
0.00325684
0.000774468
0.00366615
0.00268367
0.00957953
0.00341088
0.00366286
0.00390545
0.00067861
0.00468234
3.36188e-05
0.0055159
-0.000428309
0.00613384
-0.00105268
0.00635725
-0.00159565
0.00621095
-0.00195494
0.00575967
-0.00212758
0.00508692
-0.00213612
0.00428387
-0.00201209
0.00343643
-0.00179193
0.00261229
-0.00150713
0.00186275
-0.00119522
0.00122187
-0.000889537
0.000696987
-0.00060333
0.000289927
-0.000384805
-1.77758e-05
-0.000261766
-0.000253677
-0.000220167
-0.000430705
-0.000220733
-0.000555728
-0.000229429
-0.000635563
-0.000241702
-0.000678459
-0.000257372
-0.000691677
-0.000275902
-0.000684489
-0.000297556
-0.000666726
-0.000320137
-0.000642546
-0.000336571
-0.000609211
-0.00033807
-0.000556112
-0.0003153
-0.000462101
-0.000257027
-0.000300807
-0.000145185
-0.000102288
4.21771e-05
0.000120711
0.000265463
0.000400019
0.000492472
0.00074949
0.00072216
0.00122678
0.000947134
0.00174907
0.000920992
0.00191757
0.000541457
0.00106673
0.00162532
0.00501983
0.0101611
0.013819
0.0129188
0.00157877
0.0122841
0.000668284
0.0116345
0.000221223
0.0107607
-0.000178914
0.00961633
-0.000451402
0.00829402
-0.000632723
0.00688603
-0.00071966
0.00546954
-0.000719673
0.00411642
-0.000659002
0.00288814
-0.000563658
0.00181706
-0.000436045
0.00092122
-0.000299369
0.000201893
-0.0001702
-0.000333951
-6.74736e-05
-0.000693173
-2.55728e-05
-0.000926104
-2.88257e-05
-0.00108827
-5.7995e-05
-0.00121211
-9.68792e-05
-0.00130832
-0.000133206
-0.00138455
-0.000165462
-0.0014479
-0.000194014
-0.00150447
-0.00021931
-0.00156092
-0.000241098
-0.00162427
-0.000256774
-0.00170057
-0.000260252
-0.00179615
-0.000242477
-0.00191954
-0.000191902
-0.00208185
-9.47017e-05
-0.00228801
6.09896e-05
-0.00252721
0.000281391
-0.0028455
0.000583757
-0.00334003
0.000987017
-0.00410673
0.00148888
-0.00520451
0.00204492
-0.00674478
0.00246127
-0.00858771
0.0023844
-0.00800247
0.00104009
-0.00266384
0.00437699
0.00341371
0.00353169
0.00151325
0.00398182
-0.000229208
0.00401585
-0.000213084
0.00365725
-9.2837e-05
0.0030809
-5.63658e-05
0.00237423
-1.29619e-05
0.00159939
5.52038e-05
0.000820038
0.000120396
9.12721e-05
0.000165149
-0.000529119
0.000184385
-0.00100425
0.000175783
-0.00133604
0.000161611
-0.0015433
0.000139801
-0.00167327
0.000104414
-0.00176615
6.40639e-05
-0.00184743
2.32912e-05
-0.00192786
-1.64328e-05
-0.00200636
-5.46864e-05
-0.00208618
-8.56351e-05
-0.00217147
-0.000108708
-0.00226561
-0.000125155
-0.00237136
-0.000135336
-0.0024903
-0.000137814
-0.00262159
-0.000128951
-0.00276108
-0.000102978
-0.00290009
-5.28769e-05
-0.00302358
2.8805e-05
-0.00312371
0.000161133
-0.00320554
0.000363233
-0.00328066
0.000658886
-0.00336161
0.00106799
-0.00345141
0.00157868
-0.00349474
0.00208827
-0.00341217
0.00237872
-0.00302122
0.00199346
-0.00170317
-0.000277947
-0.00428332
-0.000782093
0.00427966
-0.000237874
0.000968869
-0.000778058
0.000310885
-0.00115192
0.000160762
-0.00140668
0.000161941
-0.00164772
0.000184706
-0.00187686
0.000216214
-0.00207061
0.000248993
-0.0022239
0.000273714
-0.00233703
0.000278307
-0.00240979
0.000257167
-0.0024497
0.000215708
-0.00245746
0.000169391
-0.00244243
0.000124787
-0.00242305
8.50483e-05
-0.00241217
5.31974e-05
-0.00241638
2.75191e-05
-0.00243689
4.09574e-06
-0.00247169
-1.98696e-05
-0.00251954
-3.77727e-05
-0.00257849
-4.97471e-05
-0.0026466
-5.70254e-05
-0.00272181
-6.01064e-05
-0.00280132
-5.82892e-05
-0.00288062
-4.96411e-05
-0.00295256
-3.10229e-05
-0.00300771
2.28756e-06
-0.00303158
5.26854e-05
-0.003002
0.000131566
-0.00289349
0.000254744
-0.0026723
0.000437707
-0.0023105
0.000706196
-0.00180645
0.00107465
-0.00114119
0.00142303
-0.000108893
0.00134643
0.00124363
0.000640941
0.0016031
-0.000637395
-0.0025881
-0.00776924
-0.010996
-0.00666053
-0.00566309
-0.0053328
-0.00515657
-0.00498173
-0.004786
-0.00456012
-0.00430241
-0.0040206
-0.00373451
-0.00346961
-0.00324599
-0.00306839
-0.00293508
-0.00284125
-0.00277909
-0.00274254
-0.0027294
-0.00274031
-0.00276923
-0.00281027
-0.00285875
-0.0029105
-0.00296064
-0.00300235
-0.00302566
-0.00301592
-0.00295603
-0.00281755
-0.00255617
-0.00211215
-0.00139998
-0.00031972
0.00110841
0.00245964
0.00310534
0.00247288
)
;

boundaryField
{
    floor
    {
        type            calculated;
        value           nonuniform List<scalar> 
29
(
0
0
0
0
0
0
0
0
0
0
0
0
0
0
0
0
0
0
0
0
-4.81689e-06
-1.21728e-05
-1.83951e-05
-2.40669e-05
-1.8376e-06
-3.49648e-06
-9.79612e-06
-1.00682e-05
-9.41477e-06
)
;
    }
    ceiling
    {
        type            calculated;
        value           nonuniform List<scalar> 
43
(
-5.98292e-05
-5.76004e-05
-5.58026e-05
-2.85379e-05
-1.93717e-05
-1.54292e-05
-1.28711e-05
-1.10022e-05
-9.64417e-06
-8.69368e-06
-8.07702e-06
-7.75771e-06
-7.71489e-06
-7.89406e-06
-8.1908e-06
-8.50467e-06
-8.7671e-06
-8.94231e-06
-9.02307e-06
-9.02038e-06
-8.94982e-06
-8.83679e-06
-8.69334e-06
-8.52618e-06
-8.33975e-06
-8.1371e-06
-7.92028e-06
-7.69012e-06
-7.44583e-06
-7.18386e-06
-6.90693e-06
-6.61334e-06
-6.30065e-06
-5.96458e-06
-5.59758e-06
-5.08365e-06
-4.79413e-06
-4.73937e-06
-4.92394e-06
-4.45397e-06
7.61304e-06
5.01357e-06
-8.39783e-05
)
;
    }
    sWall
    {
        type            calculated;
        value           uniform -0.000282183;
    }
    nWall
    {
        type            calculated;
        value           nonuniform List<scalar> 6(-5.33031e-05 -6.37934e-05 -6.96685e-05 -8.36752e-05 -9.21125e-05 -0.000110748);
    }
    sideWalls
    {
        type            empty;
        value           nonuniform 0();
    }
    glass1
    {
        type            calculated;
        value           nonuniform List<scalar> 9(-5.92451e-05 -0.000159127 -0.000242888 -0.000313896 -0.000373935 -0.000424415 -0.000470313 -0.000526376 -0.000589223);
    }
    glass2
    {
        type            calculated;
        value           nonuniform List<scalar> 2(-0.000286943 -0.000318783);
    }
    sun
    {
        type            calculated;
        value           uniform 0;
    }
    heatsource1
    {
        type            calculated;
        value           nonuniform List<scalar> 3(2.04823e-07 2.04732e-07 2.04748e-07);
    }
    heatsource2
    {
        type            calculated;
        value           nonuniform List<scalar> 4(5.12935e-08 5.14321e-08 0 0);
    }
    Table_master
    {
        type            calculated;
        value           nonuniform List<scalar> 9(-1.53622e-07 -1.53692e-07 -1.53718e-07 -1.53735e-07 -1.53747e-07 -1.53755e-07 -1.53756e-07 -1.53747e-07 -1.5371e-07);
    }
    Table_slave
    {
        type            calculated;
        value           nonuniform List<scalar> 9(1.53489e-07 1.53504e-07 1.53482e-07 1.53465e-07 1.53462e-07 1.53466e-07 1.53486e-07 1.53536e-07 1.53626e-07);
    }
    inlet
    {
        type            calculated;
        value           uniform -0.00621204;
    }
    outlet
    {
        type            calculated;
        value           nonuniform List<scalar> 2(0.00811126 0.00328435);
    }
}


// ************************************************************************* //
