/*--------------------------------*- C++ -*----------------------------------*=========                 |
  \      /  F ield         | OpenFOAM: The Open Source CFD Toolbox
   \    /   O peration     | Website:  https://openfoam.org
    \  /    A nd           | Version:  6
     \/     M anipulation  |
\*---------------------------------------------------------------------------*/
FoamFile
{
    version     2.0;
    format      ascii;
    class       volScalarField;
    location    "400";
    object      PPD;
}
// * * * * * * * * * * * * * * * * * * * * * * * * * * * * * * * * * * * * * //

dimensions      [0 0 0 0 0 0 0];

internalField   nonuniform List<scalar> 
459
(
64.11842006426339
52.857067152171496
51.52422614597206
50.296693965899145
49.42480554437806
48.85288482976476
48.57245758988991
48.58481983242991
48.83886088596586
49.42713444950376
50.35026692908981
51.7349311479768
53.6861900393844
55.98484303421435
56.98633357402354
60.59340448872413
59.84735352520099
59.512230893759806
59.58960244513534
59.692731630982344
59.738924892187434
59.32158913518609
59.2038296791642
59.221811829278984
59.264332720583475
59.33122862996323
59.42133428066151
59.54036910538439
59.70853888745761
59.95486784816116
60.44687991001225
60.952749248159876
61.08094930773183
61.592991153176776
62.590373357359745
54.02057886200834
53.614304216245955
52.49805781270317
51.80299318055209
51.368606820636735
51.13637096761987
51.11675233418626
51.20693539643155
51.42545737074011
51.862701715354376
52.658192795484545
53.85902644445977
55.36141911650599
56.79538248216462
56.92309049793085
57.10485427842514
58.401965932065906
59.30580581725924
59.04757489388477
58.62304937797884
58.296301333659876
58.1017094097813
58.05329254408841
58.132383336628365
58.1699536078329
58.21547443371696
58.255181121572946
58.27309189728526
58.29814285305179
58.35857647843633
58.4696617164837
58.84997393319116
59.8124397073652
60.182061350109
59.66897971829645
65.07241677257349
54.20275651774043
55.49120409351293
54.954092492126364
54.781027039409345
54.70747308459162
54.71070236354719
54.78457900363334
54.6311456796109
54.23668853432981
53.81993296631088
53.69456551934536
53.999327079230135
54.891398442625665
56.461811608627585
56.76724520328408
56.92309049793085
53.26258376685491
55.53311882723604
56.33573104948076
56.80748555445604
57.210832853180165
57.54036914482159
57.78475249386332
58.106992298544206
58.33448220717496
58.448948638604456
58.48582661870129
58.49782396964875
58.50370351194286
58.41080393689237
58.135130025343955
58.163294840568156
59.02876097132724
58.6963031850962
56.52553761516481
69.12552083042867
54.578098978521275
56.929289263782834
57.3344024480864
58.15830959043872
58.942868230717664
59.549130638335676
59.76299693311129
58.99650900543804
57.33479385307563
55.446008523031246
54.00488619659223
53.319774888365664
53.58356540110605
54.755764988802454
56.382711697468444
56.307168062220995
54.370992476075926
53.662650003363424
55.04073585662803
56.37515642883942
57.33474833074655
58.057054130241525
58.456093183234316
58.484587124824884
58.34020153785144
58.244076625443206
58.20551495035053
58.19649141605558
58.293445784852096
58.59427893517136
59.14621786264676
60.27402271180215
60.1023229869665
59.490379285337866
57.50425573352604
54.197009124079585
73.57433673529577
55.75290293385151
58.347535990788465
59.583098875015004
61.72844706020684
64.14437495864803
66.10860430305488
65.58139121667585
62.432330327201896
58.8326109166799
55.519720271340724
53.19083263998834
52.00894239452605
51.967137172882616
52.87510274182745
54.240366286375
55.09626087886014
55.184264124899826
55.48699851193748
56.76188868048324
58.261769817295765
59.54714345628174
60.514544935099316
61.091916537737816
61.31020802331508
61.24500431754719
61.1502806454401
61.01337612830427
60.851340004930044
60.720231495113644
60.67146861969547
60.73788844409303
60.90881822450173
60.35569493388113
59.197337863435756
56.39689484193243
56.23438623950509
62.689437622112074
61.68169256193134
53.40375929922867
77.71509913616505
58.096051981566085
61.139234642800915
62.20908087482588
65.04215027278903
66.8016773806152
67.97981188890503
65.17603166791247
61.35149486584083
57.43432742992972
53.96303535248944
51.476289306713674
50.33823190168358
50.522304217818764
51.72570964152843
53.55060047952399
55.387599330862116
56.81168192253284
58.187883217086224
59.856544443203965
60.773146644191286
61.4139175128706
61.89960799332045
62.25672066016805
62.5113852710683
62.689437622112074
62.81650815409746
62.89270593566644
62.89270593566644
62.79110144175612
62.61315124197616
62.384097144977595
61.850191807143375
60.70238226684433
59.137965740851
56.15555342956127
56.14835617471763
57.01264096439393
56.88420205204219
57.3478140159597
81.42303113247877
63.15931725020985
68.86372974208064
67.17836607641898
66.79862464131627
66.49247669375427
64.7122884428597
61.732045726611375
57.89219803929578
53.90460341573518
50.671451260787165
48.735045549193806
48.36794787167289
49.437174759928645
51.609718492769744
54.43002190006285
57.38179861738354
59.20253953339618
60.362108407147986
61.33712463638717
62.12925717420927
62.689437622112074
63.070368963396355
63.3238470846942
63.50104828522627
63.62750047495302
63.678052976393516
63.678052976393516
63.602218122457224
63.42512876036612
63.146453073871506
62.84191114774919
62.48593477967864
61.872722349282164
59.966871746595864
57.16359841707627
56.176929916287186
55.71676507515401
54.36198816523878
58.73416423724983
86.2802970902319
78.3764596847365
76.3926130834231
71.70799685608112
69.19188348392885
66.21290566922528
61.91148529777488
56.72902759281621
51.67116483710517
47.72776434845459
45.51748115834535
45.20927528575317
46.726559385839366
49.607393879807034
53.44385325674914
57.49412925410065
59.279992556183345
60.798812790396106
62.052737887164305
62.86731041187899
63.42512876036612
63.829612077454556
64.05666985758964
64.23303292460986
64.30855248065355
64.3588770986627
64.3588770986627
64.30855248065355
64.18266492612486
64.0314580601015
63.77910886370204
63.3998142815768
63.070368963396355
62.66401247880149
62.25672066016805
61.76936181107609
60.57433060755342
59.93523149195672
56.90750017004212
52.919645582294606
91.8941963319997
88.15998670017284
82.16467831519265
74.734622609783
66.80024045774441
57.79950947443738
48.77702719109954
41.933268676303584
38.16057154063967
37.34690207277987
39.04750267367983
42.730061010249784
47.873762042042166
53.83470933319624
57.05292809308981
59.58960244513534
61.490682301790635
62.74027690432152
63.57693171646647
64.13227972538033
64.48461188524462
64.42925371576803
64.31107546268254
64.16400862062146
64.01037624121145
63.801924453820114
63.5723672833323
63.26185729023681
62.88078470670717
62.45094925944667
61.92725158350066
61.38809610533612
60.874259313635115
60.20024706877873
59.45901217418647
58.792618610867365
58.3419665565811
58.07756345815411
57.50862674416922
55.84416049555201
99.07582861216592
57.129456120933824
24.592194929537612
7.461389635947924
5.438436544869603
11.223438688552932
21.08615353916811
32.52741297223626
42.770961882109
49.43565001870078
54.89452428442746
58.40109597376017
60.773146644191286
61.88196365489735
62.44399701867227
62.80228701458814
62.982233434488485
63.05343206109826
63.01233635503835
62.911937251805824
62.76272024291305
62.603971583461025
62.40262839631526
62.154849058939334
61.91475423542448
61.638329061168
61.391157782219736
61.16400198618428
61.00515239390865
60.93597137150857
60.89419505361151
60.89516113622506
60.94232178431061
61.0895977739981
61.64385414220096
63.4317881537917
66.78661593155545
58.8714866323388
91.79122506152136
23.40830068731391
5.109571734499596
11.58198532794755
21.27660192771154
31.13812676608758
38.57437717569635
44.69659646107821
49.57479705439525
53.39367030655548
56.28848958317459
58.29660836691888
59.67885506353483
60.62278604964059
61.25156933091389
61.661484585322505
61.89397731080134
62.03419579304423
62.13616026940804
62.156223650378074
62.14615569504965
62.08443979391561
62.028367848921235
61.931544325078065
61.828001392198274
61.72898218493249
61.67594636558972
61.640449603455224
61.70665945017275
61.91696530533568
62.339131765893484
62.976191205610746
63.67173089542422
64.25434791094548
64.8809341213912
66.81400543885161
63.3877974913307
60.86282448223726
21.179139537324332
26.962327115391346
22.04012179821119
7.489947629832315
20.677689558703364
29.951517116106842
36.70045798939053
42.276977850054195
46.90246897241697
50.67812477959285
53.70221686800042
56.14548570383013
57.954618792172894
59.22079138499343
60.061696042055154
60.54060646888544
60.76959525265023
60.879596931175705
60.96838695942229
61.00434683726843
61.07242522484552
61.14604918896737
61.19233428179454
61.23722074839796
61.281480144507555
61.328799525720946
61.387462384285186
61.471994134245705
61.604093508587155
61.81370129906658
62.16851413689161
62.75643483724439
63.81109306195863
65.67731921452408
67.34327144553154
67.66202915924984
66.02185873869581
63.98832759650987
61.71923484517876
61.75698471690335
)
;

boundaryField
{
    ".*"
    {
        type            zeroGradient;
    }
}


// ************************************************************************* //
