// -*- C++ -*-
// File generated by PyFoam - sorry for the ugliness

FoamFile
{
 version 2.0;
 format ascii;
 class volVectorField;
 location "400";
 object U;
}

dimensions [ 0 1 -1 0 0 0 0 ];

internalField nonuniform List<vector> 459
(
  (0.0353179 0.0870795 0)
  (-0.169192 0.025733 0)
  (-0.193188 0.0180542 0)
  (-0.224063 0.0127481 0)
  (-0.246991 0.00694476 0)
  (-0.261338 0.000903565 0)
  (-0.266012 -0.00545444 0)
  (-0.259549 -0.0121509 0)
  (-0.242464 -0.0189961 0)
  (-0.215598 -0.0251039 0)
  (-0.181286 -0.029685 0)
  (-0.14236 -0.0324449 0)
  (-0.101699 -0.0340109 0)
  (-0.0647299 -0.036312 0)
  (-0.0482936 -0.0408581 0)
  (0.00328777 0.00683045 0)
  (-0.020388 -0.0209345 0)
  (0.00787037 -0.0289089 0)
  (0.0291522 -0.0205593 0)
  (0.0459817 -0.0133728 0)
  (0.0574271 -0.00836353 0)
  (0.063626 -0.00516712 0)
  (0.0664833 -0.00352374 0)
  (0.0677669 -0.00274211 0)
  (0.0684651 -0.0023104 0)
  (0.0688753 -0.0020173 0)
  (0.0690105 -0.00177623 0)
  (0.0688035 -0.00148035 0)
  (0.0680192 -0.000949665 0)
  (0.0660377 0.000221851 0)
  (0.0615748 0.00259848 0)
  (0.0532373 0.00506255 0)
  (0.0457373 0.00677005 0)
  (-0.0153758 0.0223766 0)
  (0.212876 0.177917 0)
  (-0.157226 0.0672481 0)
  (-0.153828 0.0523087 0)
  (-0.185128 0.0412657 0)
  (-0.207247 0.0290381 0)
  (-0.22131 0.0156897 0)
  (-0.226291 0.000890452 0)
  (-0.220454 -0.0152393 0)
  (-0.204785 -0.0310718 0)
  (-0.180477 -0.0444033 0)
  (-0.150173 -0.0533991 0)
  (-0.116986 -0.057253 0)
  (-0.0841441 -0.0564648 0)
  (-0.0559469 -0.0525956 0)
  (-0.0381215 -0.0460454 0)
  (-0.0230389 -0.0247564 0)
  (-0.00927026 0.00780537 0)
  (0.0775581 0.0302969 0)
  (0.0398789 -0.0219674 0)
  (0.0452694 -0.0323841 0)
  (0.0566478 -0.0262285 0)
  (0.0652582 -0.0169908 0)
  (0.0702948 -0.00899275 0)
  (0.0719666 -0.00343438 0)
  (0.0720125 -0.000537412 0)
  (0.0718649 0.000751382 0)
  (0.0719186 0.00140424 0)
  (0.0720423 0.00183742 0)
  (0.0721214 0.00223236 0)
  (0.0721077 0.00275428 0)
  (0.0719449 0.00378681 0)
  (0.0710413 0.00630979 0)
  (0.0667378 0.0132335 0)
  (0.055963 0.0189393 0)
  (0.0507465 0.0222676 0)
  (-0.0546218 0.0485666 0)
  (0.375184 0.265675 0)
  (-0.173993 0.106653 0)
  (-0.11433 0.0839553 0)
  (-0.143927 0.0641454 0)
  (-0.162761 0.0440984 0)
  (-0.175055 0.0225925 0)
  (-0.179207 -0.00133327 0)
  (-0.172484 -0.0270315 0)
  (-0.156718 -0.051637 0)
  (-0.133793 -0.0714921 0)
  (-0.106695 -0.0839683 0)
  (-0.078362 -0.0882138 0)
  (-0.0512839 -0.0849634 0)
  (-0.0279246 -0.0753548 0)
  (-0.0108055 -0.0599028 0)
  (0.00319166 -0.0341684 0)
  (0.0127435 0.00126692 0)
  (0.116499 -0.053062 0)
  (0.0771283 -0.0511374 0)
  (0.0727388 -0.0433907 0)
  (0.0757133 -0.0328934 0)
  (0.07762 -0.0218754 0)
  (0.0780318 -0.0125957 0)
  (0.075567 -0.0103378 0)
  (0.0719277 -0.00751647 0)
  (0.0696606 -0.00599442 0)
  (0.0686864 -0.00512101 0)
  (0.0682969 -0.00456954 0)
  (0.0681834 -0.00417256 0)
  (0.0684341 -0.00372411 0)
  (0.0695581 -0.00286907 0)
  (0.0728993 0.000436674 0)
  (0.0707012 0.018871 0)
  (0.0558503 0.0318601 0)
  (0.0578996 0.0401052 0)
  (-0.0888828 0.0759558 0)
  (0.52041 0.335935 0)
  (-0.208731 0.141511 0)
  (-0.0735478 0.110095 0)
  (-0.100644 0.0826552 0)
  (-0.113123 0.0570385 0)
  (-0.120915 0.0292623 0)
  (-0.121388 -0.00308665 0)
  (-0.111381 -0.038577 0)
  (-0.0944425 -0.0713145 0)
  (-0.0733928 -0.0962676 0)
  (-0.0510781 -0.110696 0)
  (-0.0296198 -0.11438 0)
  (-0.0101573 -0.108801 0)
  (0.00711135 -0.0947635 0)
  (0.0211495 -0.0746623 0)
  (0.0360791 -0.0490717 0)
  (0.0600143 -0.0231108 0)
  (0.0926695 -0.0040079 0)
  (0.102168 -0.0399818 0)
  (0.0870575 -0.0436889 0)
  (0.0786477 -0.0371026 0)
  (0.0756574 -0.0290349 0)
  (0.0743409 -0.0201596 0)
  (0.0748584 -0.0101033 0)
  (0.0781986 -0.00599569 0)
  (0.0828995 -0.00510728 0)
  (0.086753 -0.00454506 0)
  (0.0895424 -0.00394469 0)
  (0.0912166 -0.00301863 0)
  (0.0909727 -0.0015785 0)
  (0.0877625 0.000531549 0)
  (0.0804171 0.00358018 0)
  (0.0659093 0.00815485 0)
  (0.0542633 0.0302513 0)
  (0.0421748 0.0483908 0)
  (0.0611174 0.0620525 0)
  (-0.128591 0.100107 0)
  (0.643933 0.390318 0)
  (-0.25036 0.170151 0)
  (-0.0345617 0.124023 0)
  (-0.0560553 0.0921097 0)
  (-0.0595861 0.0634315 0)
  (-0.0596683 0.031561 0)
  (-0.0507751 -0.00798003 0)
  (-0.0347596 -0.0521489 0)
  (-0.0170596 -0.0899368 0)
  (-0.000171661 -0.116482 0)
  (0.0142878 -0.129736 0)
  (0.0257087 -0.130859 0)
  (0.0346571 -0.122616 0)
  (0.0416768 -0.107047 0)
  (0.0478122 -0.0864812 0)
  (0.0551037 -0.0634568 0)
  (0.0662221 -0.0432477 0)
  (0.077536 -0.036185 0)
  (0.0798395 -0.0421005 0)
  (0.0731394 -0.0395573 0)
  (0.0651455 -0.0327344 0)
  (0.0597147 -0.0255761 0)
  (0.0565547 -0.0186389 0)
  (0.055824 -0.0120493 0)
  (0.0574679 -0.0073341 0)
  (0.0608342 -0.00523145 0)
  (0.064237 -0.00425377 0)
  (0.067381 -0.003105 0)
  (0.0700178 -0.000932106 0)
  (0.0715988 0.00264915 0)
  (0.0709067 0.00760087 0)
  (0.0675091 0.0140447 0)
  (0.0607406 0.0227437 0)
  (0.0529064 0.0395344 0)
  (0.0415286 0.0599916 0)
  (0.0684585 0.0821736 0)
  (-0.0316199 0.113999 0)
  (0.0452714 0.0268306 0)
  (-0.0704942 -0.0392658 0)
  (-0.283739 -0.0624256 0)
  (0.73139 0.43573 0)
  (-0.289587 0.189436 0)
  (-0.00631822 0.117614 0)
  (-0.0101348 0.0896559 0)
  (-0.00116529 0.0618185 0)
  (0.00995463 0.0248725 0)
  (0.0359488 -0.023289 0)
  (0.0565729 -0.0692184 0)
  (0.0714304 -0.104626 0)
  (0.0801379 -0.127126 0)
  (0.0833093 -0.136791 0)
  (0.0822841 -0.13521 0)
  (0.0784636 -0.12481 0)
  (0.0731972 -0.108133 0)
  (0.0679633 -0.0878668 0)
  (0.0641961 -0.06669 0)
  (0.0628961 -0.048307 0)
  (0.0621364 -0.0375211 0)
  (0.0579356 -0.0341084 0)
  (0.0499108 -0.0307428 0)
  (0.0414095 -0.0257248 0)
  (0.0351141 -0.0205792 0)
  (0.03145 -0.0159548 0)
  (0.0304841 -0.0119358 0)
  (0.0318758 -0.00925191 0)
  (0.0348459 -0.00841176 0)
  (0.0384212 -0.00812451 0)
  (0.0422554 -0.00716797 0)
  (0.0461128 -0.00461556 0)
  (0.0498124 0.000267264 0)
  (0.0523431 0.00732506 0)
  (0.0530945 0.0161365 0)
  (0.0524552 0.0270867 0)
  (0.0521451 0.0425059 0)
  (0.0495273 0.0622975 0)
  (0.0763745 0.0878495 0)
  (0.049094 0.107755 0)
  (0.0960824 0.071278 0)
  (0.121324 0.0455467 0)
  (-0.140414 -0.012237 0)
  (0.784235 0.477358 0)
  (-0.307069 0.174657 0)
  (0.0217569 0.0626001 0)
  (0.0531806 0.0580944 0)
  (0.0763738 0.0431176 0)
  (0.107539 0.0024305 0)
  (0.139606 -0.0461377 0)
  (0.158668 -0.0854913 0)
  (0.165578 -0.112594 0)
  (0.16205 -0.127474 0)
  (0.15051 -0.131178 0)
  (0.133752 -0.125565 0)
  (0.114396 -0.112963 0)
  (0.0946811 -0.0958879 0)
  (0.0764451 -0.0767833 0)
  (0.0608889 -0.0577643 0)
  (0.0485945 -0.0414568 0)
  (0.0386846 -0.0305521 0)
  (0.0291253 -0.0249805 0)
  (0.0195763 -0.0215741 0)
  (0.0113045 -0.0183839 0)
  (0.00551753 -0.0156258 0)
  (0.0023407 -0.0135357 0)
  (0.00158049 -0.0120581 0)
  (0.00278688 -0.0114413 0)
  (0.00523097 -0.011713 0)
  (0.00828147 -0.0120221 0)
  (0.0117669 -0.0114918 0)
  (0.0157503 -0.00927781 0)
  (0.0203761 -0.004388 0)
  (0.0268925 0.00384533 0)
  (0.0320639 0.0136434 0)
  (0.037047 0.0247521 0)
  (0.0438437 0.0383606 0)
  (0.0507751 0.0544459 0)
  (0.0758562 0.0753547 0)
  (0.0877433 0.0836837 0)
  (0.123916 0.0551134 0)
  (0.166481 0.0435549 0)
  (-0.0345942 0.095801 0)
  (0.890266 0.47851 0)
  (-0.0628608 0.154299 0)
  (0.114225 -0.022317 0)
  (0.191661 -0.050591 0)
  (0.226265 -0.0552894 0)
  (0.25581 -0.0713135 0)
  (0.273144 -0.0892857 0)
  (0.274641 -0.10329 0)
  (0.260874 -0.111323 0)
  (0.23531 -0.11292 0)
  (0.202185 -0.108404 0)
  (0.165581 -0.0987658 0)
  (0.128876 -0.0852833 0)
  (0.0946643 -0.0696513 0)
  (0.0646844 -0.0535702 0)
  (0.0395912 -0.0382391 0)
  (0.0199456 -0.0255893 0)
  (0.00509611 -0.0174978 0)
  (-0.00661521 -0.013776 0)
  (-0.0152229 -0.0124776 0)
  (-0.0216794 -0.0118055 0)
  (-0.0260225 -0.0115457 0)
  (-0.0285742 -0.0116767 0)
  (-0.0296698 -0.012121 0)
  (-0.0296935 -0.0128862 0)
  (-0.0291061 -0.0138662 0)
  (-0.0282305 -0.01468 0)
  (-0.0270926 -0.0148832 0)
  (-0.0254751 -0.0140086 0)
  (-0.0228926 -0.011491 0)
  (-0.0179509 -0.00657977 0)
  (-0.00774134 0.00117862 0)
  (0.00040674 0.010049 0)
  (0.0113907 0.0186702 0)
  (0.0229642 0.0266179 0)
  (0.0449781 0.0358441 0)
  (0.0646449 0.0284883 0)
  (0.0850525 -0.00448481 0)
  (0.14703 0.0421187 0)
  (-0.445994 0.218026 0)
  (1.03986 0.426269 0)
  (0.492717 0.279094 0)
  (0.511375 0.175569 0)
  (0.546622 0.105502 0)
  (0.529089 0.0579504 0)
  (0.487872 0.0168294 0)
  (0.439496 -0.0173246 0)
  (0.385746 -0.0416179 0)
  (0.326702 -0.0555164 0)
  (0.265176 -0.0603789 0)
  (0.204779 -0.0584813 0)
  (0.148685 -0.0521479 0)
  (0.0988227 -0.0429386 0)
  (0.0566757 -0.0324991 0)
  (0.0223884 -0.0222292 0)
  (-0.00532597 -0.0128427 0)
  (-0.0238198 -0.00704694 0)
  (-0.0356599 -0.00483949 0)
  (-0.0437946 -0.00491689 0)
  (-0.0497809 -0.00603778 0)
  (-0.0544424 -0.00736388 0)
  (-0.058076 -0.00870747 0)
  (-0.0609981 -0.0100141 0)
  (-0.0634932 -0.0112536 0)
  (-0.0658494 -0.0124163 0)
  (-0.0683783 -0.0134008 0)
  (-0.0713551 -0.0139427 0)
  (-0.0750152 -0.0136565 0)
  (-0.0796477 -0.0120485 0)
  (-0.0857103 -0.00849638 0)
  (-0.0938443 -0.0022835 0)
  (-0.103477 0.00692855 0)
  (-0.113783 0.0187881 0)
  (-0.130341 0.033727 0)
  (-0.156687 0.0517165 0)
  (-0.195161 0.0708706 0)
  (-0.250108 0.0859732 0)
  (-0.312967 0.0942307 0)
  (-0.384889 0.0963027 0)
  (-0.654016 0.092519 0)
  (-0.202264 -0.0168367 0)
  (0.108564 -0.0190274 0)
  (0.192763 -0.0389559 0)
  (0.180009 -0.0387461 0)
  (0.164892 -0.0313867 0)
  (0.145012 -0.0241909 0)
  (0.118274 -0.0178648 0)
  (0.086156 -0.0120521 0)
  (0.0520703 -0.00714173 0)
  (0.0193435 -0.00337247 0)
  (-0.0116643 -0.000310881 0)
  (-0.0347611 0.00124017 0)
  (-0.0517498 0.00165603 0)
  (-0.0631117 0.000836339 0)
  (-0.0698469 -0.00130651 0)
  (-0.0742055 -0.00405573 0)
  (-0.0777402 -0.00687853 0)
  (-0.0811814 -0.0092524 0)
  (-0.0846205 -0.010907 0)
  (-0.087987 -0.0120732 0)
  (-0.0914854 -0.0128744 0)
  (-0.0953005 -0.0133877 0)
  (-0.0995769 -0.0136148 0)
  (-0.10442 -0.0134398 0)
  (-0.109853 -0.012602 0)
  (-0.115775 -0.010708 0)
  (-0.121917 -0.00727459 0)
  (-0.127808 -0.00179678 0)
  (-0.132689 0.00607338 0)
  (-0.136192 0.0166646 0)
  (-0.13891 0.0309327 0)
  (-0.141395 0.0493548 0)
  (-0.144698 0.0710521 0)
  (-0.149428 0.0916227 0)
  (-0.152316 0.0995808 0)
  (-0.135027 0.0725615 0)
  (-0.0864885 -0.030622 0)
  (-0.289065 -0.221122 0)
  (0.0227564 0.199413 0)
  (0.0236963 0.0684951 0)
  (-0.0252805 0.0154408 0)
  (-0.0421403 0.0136411 0)
  (-0.054496 0.0167018 0)
  (-0.065053 0.0180017 0)
  (-0.0756619 0.0199764 0)
  (-0.0847434 0.0227562 0)
  (-0.092276 0.0254821 0)
  (-0.0982092 0.0275857 0)
  (-0.102593 0.0288452 0)
  (-0.10507 0.029544 0)
  (-0.105972 0.030537 0)
  (-0.105609 0.0318266 0)
  (-0.104682 0.0331785 0)
  (-0.103931 0.0344135 0)
  (-0.103766 0.0350266 0)
  (-0.104277 0.034426 0)
  (-0.105454 0.0324496 0)
  (-0.107235 0.0302264 0)
  (-0.109541 0.0280408 0)
  (-0.112292 0.0259223 0)
  (-0.115409 0.0238861 0)
  (-0.11879 0.0219774 0)
  (-0.122286 0.0202781 0)
  (-0.125668 0.0188968 0)
  (-0.128612 0.0179545 0)
  (-0.130561 0.017604 0)
  (-0.130628 0.0191848 0)
  (-0.127582 0.0238929 0)
  (-0.119873 0.0327693 0)
  (-0.10632 0.0468293 0)
  (-0.087125 0.0659173 0)
  (-0.0635753 0.0854602 0)
  (-0.038581 0.0969676 0)
  (0.00365162 0.080156 0)
  (0.145721 0.00394114 0)
  (-0.209363 -0.133952 0)
  (-0.0801011 -0.342223 0)
  (-0.441876 -0.13733 0)
  (-0.329205 0.0449 0)
  (-0.281611 -0.0450317 0)
  (-0.239578 -0.0522412 0)
  (-0.225979 -0.0451959 0)
  (-0.217654 -0.0383625 0)
  (-0.209791 -0.0338225 0)
  (-0.200915 -0.0311041 0)
  (-0.190523 -0.0301705 0)
  (-0.178844 -0.0314303 0)
  (-0.166587 -0.0353241 0)
  (-0.154757 -0.0419377 0)
  (-0.144265 -0.0506952 0)
  (-0.135615 -0.0603751 0)
  (-0.128907 -0.0700645 0)
  (-0.124026 -0.0789491 0)
  (-0.120667 -0.0860785 0)
  (-0.118533 -0.0907795 0)
  (-0.117488 -0.0928131 0)
  (-0.117478 -0.0922782 0)
  (-0.118385 -0.0903378 0)
  (-0.119933 -0.0874946 0)
  (-0.121904 -0.0839781 0)
  (-0.124122 -0.0799073 0)
  (-0.126401 -0.0753129 0)
  (-0.128491 -0.070141 0)
  (-0.130037 -0.0642404 0)
  (-0.130566 -0.0573377 0)
  (-0.12945 -0.0490779 0)
  (-0.125565 -0.0399962 0)
  (-0.116819 -0.029826 0)
  (-0.100352 -0.01798 0)
  (-0.0739973 -0.00346411 0)
  (-0.0386439 0.0145117 0)
  (0.0184056 0.037499 0)
  (0.0699444 0.0394327 0)
  (0.118461 0.0185343 0)
  (0.174693 -0.021185 0)
  (-0.186443 -0.0882073 0)
)
;

boundaryField
{
  floor
  {
    type noSlip;
  }
  ceiling
  {
    type noSlip;
  }
  sWall
  {
    type noSlip;
  }
  nWall
  {
    type noSlip;
  }
  sideWalls
  {
    type empty;
  }
  glass1
  {
    type noSlip;
  }
  glass2
  {
    type noSlip;
  }
  sun
  {
    type noSlip;
  }
  heatsource1
  {
    type noSlip;
  }
  heatsource2
  {
    type noSlip;
  }
  Table_master
  {
    type noSlip;
  }
  Table_slave
  {
    type noSlip;
  }
  inlet
  {
    type fixedValue;
    value uniform (0.277164 -0.114805 0);
  }
  outlet
  {
    type zeroGradient;
  }
} 	// ************************************************************************* //

