/*--------------------------------*- C++ -*----------------------------------*\
  =========                 |
  \\      /  F ield         | OpenFOAM: The Open Source CFD Toolbox
   \\    /   O peration     | Website:  https://openfoam.org
    \\  /    A nd           | Version:  6
     \\/     M anipulation  |
\*---------------------------------------------------------------------------*/
FoamFile
{
    version     2.0;
    format      ascii;
    class       volScalarField;
    location    "100";
    object      alphat;
}
// * * * * * * * * * * * * * * * * * * * * * * * * * * * * * * * * * * * * * //

dimensions      [1 -1 -1 0 0 0 0];

internalField   nonuniform List<scalar> 
459
(
0.00095092
0.00100126
0.000991203
0.00102557
0.0010555
0.00108132
0.00110413
0.00112508
0.00114541
0.00116388
0.00117673
0.00118239
0.00118075
0.00117506
0.00116892
0.000563217
0.000697899
0.000679311
0.000655925
0.000635538
0.000615371
0.000590409
0.000564864
0.000541585
0.000520321
0.000501041
0.000483672
0.000468046
0.000453862
0.000440635
0.000427671
0.000414122
0.000411708
0.00038758
0.00141561
0.00246373
0.00213638
0.00248801
0.0027028
0.00292897
0.00315333
0.0033551
0.00350305
0.00359512
0.00363869
0.00359349
0.00339822
0.00296124
0.00216923
0.0012149
0.00107389
0.000888906
0.00122954
0.0014781
0.00173004
0.00192656
0.00197746
0.00167343
0.00150531
0.00136856
0.00125745
0.00116584
0.001089
0.00102228
0.000959926
0.000896284
0.000837857
0.000782594
0.00096892
0.000515833
0.00183304
0.0035828
0.00235136
0.00341645
0.00369719
0.00388471
0.00402381
0.00412781
0.00420561
0.00426688
0.004317
0.00432754
0.00426315
0.00408685
0.00373982
0.0030245
0.00135827
0.00108897
0.00186754
0.00237059
0.00278959
0.00304825
0.00281843
0.000796326
0.000712261
0.000647346
0.000596512
0.000555888
0.000522796
0.000495519
0.000473199
0.000456127
0.000515953
0.000619552
0.00113396
0.00061169
0.00225925
0.00523306
0.00226262
0.0037108
0.00410589
0.00419707
0.00421272
0.00420808
0.00421641
0.00424805
0.00429716
0.00433499
0.00433311
0.00428637
0.00423225
0.00421198
0.00391212
0.00125986
0.00238268
0.00304224
0.00352269
0.00384652
0.00399025
0.00350099
0.000881662
0.00083548
0.000814826
0.000802962
0.000789667
0.000768031
0.000739222
0.000707313
0.000667422
0.000644044
0.000677037
0.00140832
0.000681694
0.00269479
0.00742696
0.00269715
0.00345931
0.00420351
0.00426634
0.00420149
0.00412724
0.00410256
0.00413514
0.00421187
0.00428438
0.00430131
0.00422665
0.00409931
0.00416968
0.00466668
0.00460401
0.00426884
0.00424775
0.00432809
0.00444906
0.00454405
0.00447743
0.00396261
0.00386568
0.00384563
0.00380877
0.00372028
0.00356106
0.00325932
0.00281072
0.00227947
0.00174078
0.00129194
0.00134394
0.000925501
0.00082787
0.000979719
0.00109867
0.00314306
0.00978289
0.00447032
0.00304922
0.00387796
0.0041553
0.0041503
0.00406213
0.00400501
0.00404342
0.00417332
0.00429923
0.00435934
0.00427055
0.0039921
0.00384685
0.00449421
0.00482119
0.00467909
0.00456013
0.00452464
0.00457566
0.0046667
0.00474067
0.00475499
0.00478029
0.00477077
0.00470759
0.00459028
0.00442894
0.00421951
0.00386432
0.00335548
0.0027218
0.0020889
0.00150781
0.00122865
0.00109379
0.00156826
0.00116133
0.00358965
0.0116812
0.00791345
0.00428095
0.0032895
0.00332933
0.00366156
0.00393851
0.00395029
0.00403961
0.00419868
0.00434655
0.00444298
0.00437732
0.00399907
0.00359441
0.00429494
0.00481724
0.00474827
0.00457876
0.00449682
0.0045194
0.0045967
0.00468233
0.0047475
0.00477542
0.00474041
0.00464886
0.00452116
0.00438534
0.0042647
0.00412035
0.00376526
0.0032247
0.00265214
0.00207734
0.00172817
0.00169704
0.00180448
0.00137983
0.00369844
0.0114305
0.00948343
0.0075833
0.00570761
0.00446496
0.00398716
0.00403997
0.00416513
0.00422391
0.00430827
0.00441881
0.00451139
0.00445046
0.00400569
0.00339021
0.00413061
0.00488459
0.00480554
0.00457056
0.00445628
0.00444807
0.00448506
0.00452272
0.00453211
0.00449406
0.0044032
0.00427665
0.00415133
0.00406827
0.00405767
0.00411522
0.00407808
0.00370388
0.00336355
0.00325605
0.00360087
0.00451859
0.00565767
0.00203208
0.0036223
0.00438846
0.00502805
0.00528485
0.00521357
0.00488071
0.00455058
0.00436755
0.00428061
0.00428929
0.00436784
0.00447797
0.00456325
0.00446928
0.00389794
0.00307341
0.00398914
0.00505044
0.00490908
0.00461966
0.0044844
0.00444222
0.00442855
0.00440324
0.00433969
0.00422167
0.00404713
0.00383293
0.0036121
0.00341943
0.00327331
0.00316977
0.00309976
0.00305758
0.00306767
0.00311391
0.00309988
0.00294122
0.00270571
0.00185016
0.00289894
0.00498729
0.00524929
0.00518157
0.00503097
0.00490391
0.00482112
0.00475285
0.0047022
0.00465285
0.0045698
0.00429749
0.00350031
0.00254079
0.00383418
0.00533158
0.00505979
0.00475783
0.00464767
0.00460774
0.00458262
0.00454002
0.0044571
0.00431984
0.00412408
0.00388131
0.00362208
0.00339076
0.00323124
0.00315869
0.00314667
0.00316514
0.00318673
0.00316166
0.00302269
0.00273992
0.00234123
0.0015096
0.00301101
0.00577114
0.00593513
0.00570483
0.00547218
0.00524176
0.00499906
0.00475157
0.00444119
0.00409059
0.00373334
0.00331001
0.00258432
0.00186288
0.00337265
0.00461277
0.00459151
0.00447158
0.00442602
0.00440047
0.00437924
0.00434356
0.00428099
0.00418856
0.00406991
0.0039338
0.00379128
0.0036497
0.00353001
0.00347694
0.0034846
0.00353041
0.00358103
0.00361968
0.00359513
0.00353977
0.00295329
0.00153378
0.00258499
0.00272726
0.00284926
0.00299673
0.00279284
0.00258322
0.00237394
0.00218994
0.00201589
0.0018536
0.00171622
0.00159792
0.0014905
0.00138924
0.00128506
0.0011494
0.00117257
0.00124828
0.00119458
0.00118523
0.00118061
0.00117739
0.00117454
0.00117153
0.00116889
0.00116811
0.00117129
0.00118084
0.00119947
0.00123047
0.00127524
0.0013314
0.00139954
0.00147875
0.00156735
0.00168586
0.00171763
0.00167576
0.0015622
0.00144053
)
;

boundaryField
{
    floor
    {
        type            compressible::alphatWallFunction;
        Prt             0.85;
        value           nonuniform List<scalar> 
29
(
0.000165782
7.87744e-05
9.88172e-05
9.60836e-05
9.26294e-05
8.96053e-05
8.66017e-05
8.2867e-05
7.90249e-05
7.55047e-05
7.22732e-05
6.9329e-05
6.66646e-05
6.42574e-05
6.20636e-05
6.00099e-05
5.79893e-05
5.5869e-05
5.54885e-05
5.16871e-05
5.16864e-05
7.15783e-05
8.60348e-05
9.6417e-05
0.00016578
7.87735e-05
0.00012646
0.000154682
0.000178307
)
;
    }
    ceiling
    {
        type            compressible::alphatWallFunction;
        Prt             0.85;
        value           nonuniform List<scalar> 
43
(
0.000352057
0.000370034
0.000385375
0.000403943
0.000378448
0.000352012
0.000325377
0.000301745
0.000279194
0.000257974
0.000239852
0.00022412
0.000209722
0.000196044
0.000181852
0.000163187
0.000166414
0.000176834
0.000169449
0.00016816
0.000167523
0.000167078
0.000166685
0.000166269
0.000165903
0.000165795
0.000166235
0.000167556
0.000170126
0.000174396
0.000180539
0.000188211
0.00019747
0.000208171
0.000220066
0.000235859
0.000240073
0.000234521
0.000219379
0.000203021
0.000481493
0.000574306
0.0004055
)
;
    }
    sWall
    {
        type            compressible::alphatWallFunction;
        Prt             0.85;
        value           uniform 0.000350769;
    }
    nWall
    {
        type            compressible::alphatWallFunction;
        Prt             0.85;
        value           nonuniform List<scalar> 6(0.000155768 0.00016446 0.000194387 0.000211944 0.000215187 0.000202639);
    }
    sideWalls
    {
        type            empty;
    }
    glass1
    {
        type            compressible::alphatWallFunction;
        Prt             0.85;
        value           nonuniform List<scalar> 9(0.000131276 0.000194413 0.000249326 0.00030413 0.000359102 0.000414788 0.0004695 0.000482872 0.000473869);
    }
    glass2
    {
        type            compressible::alphatWallFunction;
        Prt             0.85;
        value           nonuniform List<scalar> 2(0.000278666 0.000255129);
    }
    sun
    {
        type            compressible::alphatWallFunction;
        Prt             0.85;
        value           nonuniform List<scalar> 
14
(
0.0001353
0.000142389
0.000140972
0.000145807
0.000150002
0.000153611
0.000156791
0.000159705
0.000162527
0.000165085
0.000166861
0.000167643
0.000167417
0.000166631
)
;
    }
    heatsource1
    {
        type            compressible::alphatWallFunction;
        Prt             0.85;
        value           nonuniform List<scalar> 3(0.000117912 0.00013956 0.000156241);
    }
    heatsource2
    {
        type            compressible::alphatWallFunction;
        Prt             0.85;
        value           nonuniform List<scalar> 4(0.000172347 0.000152791 0.000152789 0.000191966);
    }
    Table_master
    {
        type            compressible::alphatWallFunction;
        Prt             0.85;
        value           nonuniform List<scalar> 9(0.000113372 0.000101128 9.15531e-05 8.39735e-05 7.78588e-05 7.28368e-05 6.86677e-05 6.52348e-05 6.25955e-05);
    }
    Table_slave
    {
        type            compressible::alphatWallFunction;
        Prt             0.85;
        value           nonuniform List<scalar> 9(0.000125646 0.000119022 0.000116044 0.000114329 0.000112404 0.000109264 0.000105068 0.000100397 9.4521e-05);
    }
    inlet
    {
        type            fixedValue;
        value           uniform 1.94e-05;
    }
    outlet
    {
        type            zeroGradient;
    }
}


// ************************************************************************* //
