/*--------------------------------*- C++ -*----------------------------------*\
  =========                 |
  \\      /  F ield         | OpenFOAM: The Open Source CFD Toolbox
   \\    /   O peration     | Website:  https://openfoam.org
    \\  /    A nd           | Version:  6
     \\/     M anipulation  |
\*---------------------------------------------------------------------------*/
FoamFile
{
    version     2.0;
    format      ascii;
    class       volScalarField;
    location    "100";
    object      epsilon;
}
// * * * * * * * * * * * * * * * * * * * * * * * * * * * * * * * * * * * * * //

dimensions      [0 2 -3 0 0 0 0];

internalField   nonuniform List<scalar> 
459
(
0.000191734
0.000223093
0.000216423
0.000239726
0.000261337
0.000280994
0.00029916
0.000316515
0.000333989
0.000350404
0.000362127
0.00036736
0.000365821
0.000360544
0.00035491
3.97155e-05
7.55527e-05
6.96767e-05
6.27237e-05
5.70516e-05
5.1787e-05
4.5733e-05
4.00465e-05
3.52933e-05
3.12949e-05
2.79417e-05
2.51343e-05
2.27754e-05
2.07664e-05
1.90028e-05
1.73741e-05
1.57743e-05
1.54982e-05
1.29315e-05
0.000634102
0.00127851
0.00020622
0.000180685
0.000178314
0.000179166
0.000182853
0.000190848
0.000204694
0.000223295
0.000242187
0.000257515
0.000266446
0.000272835
0.000300643
0.000398457
0.000275191
0.000156128
0.00011249
7.91324e-05
6.05032e-05
4.9398e-05
4.26585e-05
3.98784e-05
3.46405e-05
2.98481e-05
2.5682e-05
2.21589e-05
1.92265e-05
1.68061e-05
1.48305e-05
1.33437e-05
1.2658e-05
1.31523e-05
4.55713e-05
3.04681e-05
0.00138011
0.00396759
0.000317919
0.000177768
0.000169572
0.000173787
0.000183191
0.000198325
0.000219397
0.000244667
0.000268328
0.000283816
0.000287887
0.000285774
0.000295677
0.000345658
0.000556987
0.000287141
0.000132169
8.36959e-05
6.37738e-05
5.37092e-05
5.14011e-05
0.00011224
8.02984e-05
6.02704e-05
4.71475e-05
3.81479e-05
3.17264e-05
2.70106e-05
2.35194e-05
2.10626e-05
1.69723e-05
1.63668e-05
9.90712e-05
5.07949e-05
0.00259007
0.00917446
0.000649875
0.000191525
0.000169726
0.000178264
0.000193186
0.000214701
0.000244044
0.000279876
0.000310485
0.000324296
0.000318338
0.000299462
0.000283136
0.000292066
0.000364212
0.000444619
0.000236632
0.000113928
7.65186e-05
6.2093e-05
5.57214e-05
5.78544e-05
0.000152384
0.000129655
0.000120261
0.000115071
0.000109438
0.000100675
8.97572e-05
7.86195e-05
6.60438e-05
4.04217e-05
2.97841e-05
0.000200339
7.03097e-05
0.00440497
0.0171157
0.00152576
0.000240349
0.000171629
0.000180262
0.00020139
0.000234291
0.000282683
0.000344181
0.000390473
0.000404232
0.000386172
0.00034535
0.00029734
0.000268766
0.000283709
0.000261105
0.000145058
9.61049e-05
7.42483e-05
6.53349e-05
6.21716e-05
6.29554e-05
7.15925e-05
7.61836e-05
7.95918e-05
8.12926e-05
8.01619e-05
7.53027e-05
6.76825e-05
6.06986e-05
5.4717e-05
4.56976e-05
3.84319e-05
0.000129999
8.65849e-05
0.000126037
0.00020898
0.00029475
0.00700244
0.0255368
0.00384686
0.000484944
0.000219799
0.000198001
0.00021425
0.000256965
0.000341852
0.000454055
0.000517584
0.000525239
0.000490661
0.000425138
0.000342146
0.000277532
0.000282502
0.000218505
0.000138106
9.97798e-05
8.30784e-05
7.71244e-05
7.62821e-05
7.87662e-05
8.49409e-05
9.25972e-05
0.000100071
0.000105754
0.000107929
0.000104288
9.25729e-05
7.75866e-05
6.45852e-05
5.37618e-05
4.88689e-05
8.47738e-05
8.88276e-05
0.000101331
0.000394872
0.000347959
0.0104472
0.030276
0.00934066
0.00210974
0.000821598
0.000458723
0.00036524
0.000375189
0.000524512
0.000673094
0.000717816
0.000692864
0.000627607
0.00053216
0.000410359
0.000302
0.000306577
0.00024793
0.000159437
0.00011919
0.00010399
9.92101e-05
9.94106e-05
0.000103108
0.000110219
0.000120057
0.000131696
0.00014344
0.000154165
0.000160925
0.000158175
0.000136203
0.000114587
9.74948e-05
9.21746e-05
0.000112864
0.000154236
0.000275414
0.000644324
0.000583543
0.0114545
0.0362896
0.0185939
0.0107821
0.00572417
0.00297352
0.00175692
0.00129088
0.00119398
0.00113273
0.00103737
0.000919462
0.000793466
0.000654609
0.000489626
0.000335046
0.00033983
0.000299282
0.000199788
0.000157137
0.000141679
0.000136402
0.000135925
0.000138987
0.000145531
0.000155619
0.000169536
0.000188069
0.000212538
0.000243579
0.000279577
0.000312039
0.000317882
0.000346422
0.000423224
0.000679427
0.00137354
0.00285536
0.00827855
0.00186886
0.010799
0.019137
0.0160267
0.0120496
0.00869126
0.00600986
0.00416726
0.00303777
0.00230396
0.00179565
0.00143467
0.00116877
0.000962071
0.00077165
0.000555792
0.000354794
0.000378652
0.000375925
0.000272349
0.00022815
0.000211472
0.000203989
0.000200383
0.00019935
0.00020084
0.00020549
0.000214859
0.000231894
0.000261101
0.00030818
0.000379481
0.000481674
0.000622875
0.000824167
0.00112477
0.00152427
0.00195932
0.00230013
0.00253933
0.00141364
0.00745786
0.0104582
0.00780727
0.00581056
0.00433329
0.00327809
0.00252677
0.00197796
0.00157307
0.00126981
0.00103436
0.000813986
0.000563115
0.000345451
0.000420885
0.000513708
0.000418792
0.000375164
0.000358691
0.000350007
0.000343704
0.000337816
0.000331495
0.000324864
0.000319138
0.000317096
0.000323591
0.000345841
0.000393685
0.000476867
0.000603582
0.000781928
0.00101236
0.00125841
0.0014322
0.0014227
0.00115115
0.000767477
0.00577134
0.00960513
0.00720533
0.00533873
0.00403622
0.00306617
0.00232166
0.00176359
0.00134681
0.00103481
0.000803393
0.000631946
0.000486251
0.000328974
0.000410205
0.000546703
0.000625399
0.00061537
0.000602464
0.000592393
0.000583056
0.000571369
0.000555551
0.000535894
0.000514828
0.000496665
0.000487025
0.000492184
0.000519993
0.000580885
0.000683306
0.000833023
0.00102693
0.00125395
0.00143686
0.00154129
0.00101057
0.000804828
0.0037167
0.0043623
0.00497413
0.0058881
0.00479789
0.00381088
0.00296308
0.00232771
0.00181624
0.00141216
0.00112098
0.000904861
0.000734431
0.000594728
0.000470784
0.000337629
0.000359162
0.000433272
0.000379827
0.000371002
0.000366692
0.000363701
0.000361068
0.000358302
0.000355883
0.000355172
0.000358079
0.000366913
0.000384549
0.000415147
0.000462118
0.000525901
0.000610852
0.000720569
0.000858063
0.00106797
0.00112965
0.00104915
0.000850019
0.00066674
)
;

boundaryField
{
    floor
    {
        Cmu             0.09;
        kappa           0.41;
        E               9.8;
        type            epsilonWallFunction;
        value           nonuniform List<scalar> 
29
(
0.00035491
3.97155e-05
7.55527e-05
6.96767e-05
6.27237e-05
5.70516e-05
5.1787e-05
4.5733e-05
4.00465e-05
3.52933e-05
3.12949e-05
2.79417e-05
2.51343e-05
2.27754e-05
2.07664e-05
1.90028e-05
1.73741e-05
1.57743e-05
1.54982e-05
1.29315e-05
1.29315e-05
3.04681e-05
5.07949e-05
7.03097e-05
0.00035491
3.97155e-05
0.000156128
0.000287141
0.000444619
)
;
    }
    ceiling
    {
        Cmu             0.09;
        kappa           0.41;
        E               9.8;
        type            epsilonWallFunction;
        value           nonuniform List<scalar> 
43
(
0.0037167
0.0043623
0.00497413
0.0058881
0.00479789
0.00381088
0.00296308
0.00232771
0.00181624
0.00141216
0.00112098
0.000904861
0.000734431
0.000594728
0.000470784
0.000337629
0.000359162
0.000433272
0.000379827
0.000371002
0.000366692
0.000363701
0.000361068
0.000358302
0.000355883
0.000355172
0.000358079
0.000366913
0.000384549
0.000415147
0.000462118
0.000525901
0.000610852
0.000720569
0.000858063
0.00106797
0.00112965
0.00104915
0.000850019
0.00066674
0.010799
0.019137
0.00577134
)
;
    }
    sWall
    {
        Cmu             0.09;
        kappa           0.41;
        E               9.8;
        type            epsilonWallFunction;
        value           uniform 0.0037167;
    }
    nWall
    {
        Cmu             0.09;
        kappa           0.41;
        E               9.8;
        type            epsilonWallFunction;
        value           nonuniform List<scalar> 6(0.00029475 0.000347959 0.000583543 0.000767477 0.000804828 0.00066674);
    }
    sideWalls
    {
        type            empty;
    }
    glass1
    {
        Cmu             0.09;
        kappa           0.41;
        E               9.8;
        type            epsilonWallFunction;
        value           nonuniform List<scalar> 9(0.000191734 0.000634102 0.00138011 0.00259007 0.00440497 0.00700244 0.0104472 0.0114545 0.010799);
    }
    glass2
    {
        Cmu             0.09;
        kappa           0.41;
        E               9.8;
        type            epsilonWallFunction;
        value           nonuniform List<scalar> 2(0.00186886 0.00141364);
    }
    sun
    {
        Cmu             0.09;
        kappa           0.41;
        E               9.8;
        type            epsilonWallFunction;
        value           nonuniform List<scalar> 
14
(
0.000191734
0.000223093
0.000216423
0.000239726
0.000261337
0.000280994
0.00029916
0.000316515
0.000333989
0.000350404
0.000362127
0.00036736
0.000365821
0.000360544
)
;
    }
    heatsource1
    {
        Cmu             0.09;
        kappa           0.41;
        E               9.8;
        type            epsilonWallFunction;
        value           nonuniform List<scalar> 3(0.000126037 0.00020898 0.00029475);
    }
    heatsource2
    {
        Cmu             0.09;
        kappa           0.41;
        E               9.8;
        type            epsilonWallFunction;
        value           nonuniform List<scalar> 4(0.000398457 0.000275191 0.000275191 0.000556987);
    }
    Table_master
    {
        Cmu             0.09;
        kappa           0.41;
        E               9.8;
        type            epsilonWallFunction;
        value           nonuniform List<scalar> 9(0.00011224 8.02984e-05 6.02704e-05 4.71475e-05 3.81479e-05 3.17264e-05 2.70106e-05 2.35194e-05 2.10626e-05);
    }
    Table_slave
    {
        Cmu             0.09;
        kappa           0.41;
        E               9.8;
        type            epsilonWallFunction;
        value           nonuniform List<scalar> 9(0.000152384 0.000129655 0.000120261 0.000115071 0.000109438 0.000100675 8.97572e-05 7.86195e-05 6.60438e-05);
    }
    inlet
    {
        type            turbulentMixingLengthDissipationRateInlet;
        mixingLength    0.01;
        phi             phi;
        k               k;
        value           uniform 0.000101881;
    }
    outlet
    {
        type            zeroGradient;
    }
}


// ************************************************************************* //
