/*--------------------------------*- C++ -*----------------------------------*\
  =========                 |
  \\      /  F ield         | OpenFOAM: The Open Source CFD Toolbox
   \\    /   O peration     | Website:  https://openfoam.org
    \\  /    A nd           | Version:  6
     \\/     M anipulation  |
\*---------------------------------------------------------------------------*/
FoamFile
{
    version     2.0;
    format      ascii;
    class       volScalarField;
    location    "100";
    object      nut;
}
// * * * * * * * * * * * * * * * * * * * * * * * * * * * * * * * * * * * * * //

dimensions      [0 2 -1 0 0 0 0];

internalField   nonuniform List<scalar> 
459
(
0.000815212
0.000857431
0.0008488
0.000878229
0.000903862
0.000925976
0.000945513
0.000963451
0.000980861
0.000996672
0.00100766
0.00101249
0.00101107
0.00100619
0.00100091
0.000482306
0.000597614
0.000581678
0.000561634
0.000544159
0.000526875
0.000505485
0.000483596
0.00046365
0.000445431
0.000428912
0.000414031
0.000400645
0.000388495
0.000377166
0.000366064
0.000354463
0.000352396
0.000331767
0.00121457
0.00211007
0.00182957
0.00213075
0.00231474
0.00250849
0.00270067
0.00287351
0.00300023
0.00307907
0.00311633
0.00307749
0.0029101
0.00253574
0.00185745
0.00104027
0.000919527
0.000761269
0.00105295
0.00126575
0.00148143
0.00164964
0.00169316
0.00143276
0.00128875
0.0011716
0.00107642
0.000997942
0.000932122
0.000874974
0.000821573
0.00076708
0.000717061
0.00066976
0.000829229
0.000441528
0.001574
0.00306903
0.00201388
0.00292623
0.00316684
0.00332762
0.00344691
0.00353611
0.00360282
0.00365531
0.00369811
0.00370687
0.00365133
0.00349994
0.00320248
0.00258987
0.00116312
0.000932653
0.00159941
0.00203017
0.00238891
0.00261032
0.00241343
0.000681855
0.00060983
0.00055421
0.000510655
0.000475845
0.00044749
0.000424118
0.000404993
0.000390366
0.000441557
0.000530211
0.000970444
0.000523572
0.0019415
0.00448368
0.00193807
0.00317871
0.00351745
0.00359587
0.00360957
0.00360583
0.00361312
0.00364027
0.00368218
0.00371418
0.00371194
0.00367121
0.00362431
0.00360678
0.0033502
0.00107901
0.00204069
0.00260561
0.00301705
0.00329431
0.0034173
0.0029982
0.000755021
0.000715454
0.000697751
0.000687577
0.000676178
0.000657635
0.000632948
0.000605606
0.000571428
0.000551324
0.000579486
0.00120531
0.000583508
0.00231746
0.00636529
0.00231055
0.00296356
0.00360152
0.00365578
0.00360066
0.00353743
0.00351657
0.00354462
0.00361021
0.00367182
0.00368547
0.00362051
0.00351062
0.00357058
0.00399646
0.00394321
0.00365636
0.00363836
0.00370715
0.00381068
0.00389194
0.00383478
0.00339379
0.0033107
0.00329348
0.00326185
0.003186
0.00304956
0.00279106
0.0024068
0.00195178
0.00149036
0.00110592
0.0011503
0.000792197
0.000708844
0.000838973
0.000940875
0.00270467
0.00838763
0.00383035
0.00261248
0.00332284
0.00356095
0.00355718
0.00348214
0.00343366
0.00346688
0.00357814
0.00368546
0.00373593
0.00365858
0.00341895
0.00329414
0.00384883
0.00412942
0.00400803
0.00390624
0.00387581
0.00391944
0.00399734
0.00406062
0.00407282
0.00409443
0.00408622
0.00403203
0.00393147
0.00379316
0.00361364
0.00330926
0.00287331
0.00233046
0.00178833
0.00129067
0.0010517
0.000936373
0.00134263
0.000994396
0.00309054
0.0100215
0.00678453
0.003669
0.00281908
0.00285338
0.00313849
0.00337638
0.00338714
0.00346422
0.00360054
0.00372663
0.00380811
0.0037504
0.00342503
0.00307797
0.00367823
0.00412624
0.00406759
0.00392249
0.00385229
0.00387158
0.00393773
0.00401102
0.0040668
0.00409067
0.00406063
0.00398214
0.00387266
0.00375619
0.00365268
0.0035288
0.00322444
0.00276126
0.00227073
0.00177839
0.00147939
0.00145279
0.00154483
0.00118143
0.00318684
0.00982363
0.00814411
0.00650784
0.00489577
0.00382891
0.00341891
0.00346434
0.0035722
0.00362287
0.00369487
0.00378876
0.00386682
0.00381309
0.00343067
0.0029031
0.00353757
0.00418415
0.00411694
0.00391576
0.00381786
0.00381078
0.00384243
0.00387465
0.00388266
0.00385002
0.00377214
0.00366367
0.00355623
0.00348498
0.00347576
0.00352483
0.00349271
0.00317196
0.00288027
0.00278799
0.00308321
0.00386936
0.00484535
0.00174142
0.00312485
0.00378148
0.00432814
0.00454486
0.00447998
0.00419148
0.00390647
0.00374853
0.00367333
0.0036798
0.00374595
0.003839
0.00391064
0.00382866
0.00333801
0.00263175
0.00341653
0.00432652
0.00420597
0.00395813
0.00384225
0.00380609
0.00379434
0.00377264
0.00371816
0.00361702
0.00346746
0.0032839
0.00309467
0.00292956
0.00280436
0.00271567
0.00265573
0.00261971
0.00262858
0.00266856
0.00265701
0.00252145
0.00231979
0.00158668
0.00243515
0.00424044
0.00448634
0.00443631
0.00431029
0.00420244
0.00413157
0.00407291
0.00402907
0.00398618
0.0039143
0.00368023
0.00299685
0.00217561
0.00328408
0.00456785
0.00433548
0.00407686
0.00398248
0.00394825
0.00392671
0.00389019
0.00381914
0.00370152
0.00353379
0.00332578
0.00310368
0.00290549
0.00276884
0.00270673
0.0026965
0.00271246
0.00273118
0.00270998
0.00259118
0.00234903
0.00200733
0.00129439
0.00253592
0.00490605
0.0050649
0.00487712
0.00468228
0.00448684
0.00427968
0.00406797
0.00380229
0.00350207
0.00319609
0.00283349
0.00221212
0.00159522
0.00288937
0.00395256
0.00393465
0.00383195
0.00379292
0.00377101
0.00375282
0.00372223
0.00366861
0.00358941
0.00348774
0.00337111
0.00324901
0.00312771
0.00302518
0.00297975
0.00298639
0.00302576
0.00306932
0.00310268
0.00308191
0.0030347
0.00253186
0.00131506
0.00218992
0.00231001
0.00241332
0.00255291
0.00238448
0.00220825
0.0020306
0.00187364
0.00172492
0.00158614
0.00146863
0.00136744
0.00127555
0.00118893
0.00109983
0.000984462
0.00100489
0.00106983
0.00102386
0.00101585
0.0010119
0.00100914
0.0010067
0.00100412
0.00100185
0.00100119
0.00100391
0.0010121
0.00102806
0.00105464
0.001093
0.00114114
0.00119955
0.00126746
0.00134344
0.0014451
0.0014724
0.00143656
0.00133922
0.00123508
)
;

boundaryField
{
    floor
    {
        type            nutkWallFunction;
        Cmu             0.09;
        kappa           0.41;
        E               9.8;
        value           nonuniform List<scalar> 
29
(
0.000120822
5.74665e-05
7.20636e-05
7.00707e-05
6.7553e-05
6.53487e-05
6.31593e-05
6.04374e-05
5.76374e-05
5.50719e-05
5.27166e-05
5.05708e-05
4.8629e-05
4.68746e-05
4.52758e-05
4.37791e-05
4.23067e-05
4.07618e-05
4.04845e-05
3.7717e-05
3.77169e-05
5.22055e-05
6.27328e-05
7.0294e-05
0.000120822
5.74665e-05
9.22055e-05
0.000112763
0.000129965
)
;
    }
    ceiling
    {
        type            nutkWallFunction;
        Cmu             0.09;
        kappa           0.41;
        E               9.8;
        value           nonuniform List<scalar> 
43
(
0.000253766
0.000266666
0.000277709
0.000292671
0.000274781
0.000255894
0.000236674
0.000219539
0.000203158
0.000187732
0.000174556
0.000163115
0.000152646
0.000142697
0.00013238
0.000118878
0.00012129
0.000128887
0.000123513
0.000122574
0.000122111
0.000121787
0.0001215
0.000121197
0.00012093
0.000120852
0.000121172
0.000122134
0.000124008
0.000127119
0.000131594
0.000137184
0.000143932
0.00015173
0.0001604
0.000171918
0.000174996
0.000170954
0.000159922
0.000148019
0.000353038
0.000420634
0.000290633
)
;
    }
    sWall
    {
        type            nutkWallFunction;
        Cmu             0.09;
        kappa           0.41;
        E               9.8;
        value           uniform 0.000253836;
    }
    nWall
    {
        type            nutkWallFunction;
        Cmu             0.09;
        kappa           0.41;
        E               9.8;
        value           nonuniform List<scalar> 6(0.000113736 0.000120055 0.000141846 0.000154825 0.000157184 0.000148031);
    }
    sideWalls
    {
        type            empty;
    }
    glass1
    {
        type            nutkWallFunction;
        Cmu             0.09;
        kappa           0.41;
        E               9.8;
        value           nonuniform List<scalar> 9(9.87408e-05 0.000145828 0.000186674 0.000227371 0.000268147 0.000309411 0.000349917 0.000359954 0.000353522);
    }
    glass2
    {
        type            nutkWallFunction;
        Cmu             0.09;
        kappa           0.41;
        E               9.8;
        value           nonuniform List<scalar> 2(0.000205126 0.000187921);
    }
    sun
    {
        type            nutkWallFunction;
        Cmu             0.09;
        kappa           0.41;
        E               9.8;
        value           nonuniform List<scalar> 
14
(
9.87296e-05
0.000103799
0.000102765
0.000106285
0.000109341
0.000111968
0.000114284
0.000116405
0.00011846
0.000120322
0.000121614
0.000122182
0.000122015
0.000121441
)
;
    }
    heatsource1
    {
        type            nutkWallFunction;
        Cmu             0.09;
        kappa           0.41;
        E               9.8;
        value           nonuniform List<scalar> 3(8.58148e-05 0.000101583 0.000113729);
    }
    heatsource2
    {
        type            nutkWallFunction;
        Cmu             0.09;
        kappa           0.41;
        E               9.8;
        value           nonuniform List<scalar> 4(0.000125436 0.000111202 0.000111202 0.000139727);
    }
    Table_master
    {
        type            nutkWallFunction;
        Cmu             0.09;
        kappa           0.41;
        E               9.8;
        value           nonuniform List<scalar> 9(8.25143e-05 7.35976e-05 6.66247e-05 6.11046e-05 5.66513e-05 5.29939e-05 4.99577e-05 4.74577e-05 4.55358e-05);
    }
    Table_slave
    {
        type            nutkWallFunction;
        Cmu             0.09;
        kappa           0.41;
        E               9.8;
        value           nonuniform List<scalar> 9(9.14574e-05 8.66334e-05 8.44642e-05 8.32143e-05 8.18114e-05 7.95241e-05 7.64676e-05 7.30656e-05 6.87865e-05);
    }
    inlet
    {
        type            calculated;
        value           uniform 0.000100623;
    }
    outlet
    {
        type            calculated;
        value           nonuniform List<scalar> 2(0.00218992 0.00231001);
    }
}


// ************************************************************************* //
