/*--------------------------------*- C++ -*----------------------------------*\
  =========                 |
  \\      /  F ield         | OpenFOAM: The Open Source CFD Toolbox
   \\    /   O peration     | Website:  https://openfoam.org
    \\  /    A nd           | Version:  6
     \\/     M anipulation  |
\*---------------------------------------------------------------------------*/
FoamFile
{
    version     2.0;
    format      ascii;
    class       surfaceScalarField;
    location    "100";
    object      phi;
}
// * * * * * * * * * * * * * * * * * * * * * * * * * * * * * * * * * * * * * //

dimensions      [1 0 -1 0 0 0 0];

internalField   nonuniform List<scalar> 
852
(
-0.00289463
0.00296341
-0.0035596
0.000665052
-0.00422062
0.000661099
-0.00482271
0.000602161
-0.00532627
0.000503637
-0.00571291
0.000386712
-0.0059648
0.000251957
-0.00606045
9.57099e-05
-0.00597411
-8.62759e-05
-0.00567775
-0.000296291
-0.00515568
-0.000522014
-0.00440868
-0.000746932
-0.00342382
-0.000984796
-0.0020711
-0.00135266
-0.00206799
-0.000197534
0.000202719
0.000442303
-0.000639741
0.000963345
-0.000520944
0.00127749
-0.000314043
0.00147698
-0.000199383
0.0015997
-0.00012262
0.00164523
-4.54207e-05
0.00164551
-1.81868e-07
0.00163232
1.32992e-05
0.00161699
1.54263e-05
0.00160214
1.49429e-05
0.00158793
1.42941e-05
0.00157151
1.65022e-05
0.00154366
2.79161e-05
0.00148165
6.20736e-05
0.00134883
0.000132877
0.00113587
0.000213009
0.000877765
0.000258148
0.000884457
-0.00207934
0.00522561
-0.00291376
0.00149955
-0.00367586
0.00142328
-0.00429757
0.00122393
-0.00480558
0.00101171
-0.00519875
0.000779945
-0.005464
0.000517273
-0.00558132
0.000213094
-0.00552902
-0.000138517
-0.00529126
-0.00053399
-0.00486379
-0.000949422
-0.00425636
-0.0013543
-0.00349371
-0.00174738
-0.00272003
-0.00212628
-0.00254168
-0.00224628
-0.000921204
-0.00162047
-0.000921192
0.00121755
-0.00100368
0.00134407
-0.000766176
0.00136066
-0.000537451
0.00144758
-0.000400873
0.00155156
-0.000303273
0.00163251
-0.000203475
0.00163668
-4.94923e-05
0.00162862
7.97743e-06
0.00162303
1.89903e-05
0.00161891
1.96439e-05
0.00161535
1.86057e-05
0.00161197
1.77678e-05
0.00160775
2.0808e-05
0.00159901
3.67313e-05
0.00155691
0.000104238
0.00138246
0.000307384
0.00108484
0.000510682
0.000723536
0.000619494
0.00162481
-0.00150122
0.00700252
-0.00234026
0.00233866
-0.0030582
0.00214129
-0.0036154
0.0017812
-0.00407934
0.00147572
-0.0044504
0.00115106
-0.00471278
0.000779718
-0.00484334
0.000343711
-0.00481673
-0.000165062
-0.00461476
-0.000735899
-0.00424122
-0.0013229
-0.00372307
-0.00187239
-0.00311399
-0.00235639
-0.00251123
-0.00272899
-0.00192129
-0.00283616
-0.000998332
-0.00254337
-0.00191947
0.000579288
-0.00156706
0.000850143
-0.00103696
0.00100193
-0.000689168
0.0011384
-0.000537269
0.00127108
-0.000435873
0.00142454
-0.000356848
0.00137529
0.00138352
0.00140276
0.00142266
0.00144152
0.00145953
0.00148058
0.00151755
0.00162202
0.00133435
0.000595112
0.000985292
0.000859795
0.000581145
0.00102368
0.00223102
-0.00109916
0.00845318
-0.00188392
0.0031235
-0.00240198
0.00265942
-0.00282513
0.00220441
-0.00320201
0.00185267
-0.00352218
0.0014713
-0.00376495
0.00102255
-0.0039011
0.000479925
-0.00389432
-0.000171771
-0.00372118
-0.000908971
-0.0034021
-0.00164191
-0.00298546
-0.00228897
-0.00252567
-0.00281611
-0.00205577
-0.00319882
-0.00152189
-0.00336998
-0.000891697
-0.00317351
-0.000426885
-0.00238423
0.000809379
-0.00121928
0.000508369
-0.00126599
0.00058175
-0.00111028
0.000720171
-0.000827524
0.000837567
-0.000654596
0.000938796
-0.000537032
0.000996274
-0.000414253
0.00125802
-0.000261828
0.00148024
-0.000222298
0.001686
-0.000205831
0.00186819
-0.000182265
0.00200491
-0.000136795
0.00206301
-5.81828e-05
0.00200591
5.70287e-05
0.0017982
0.000207635
0.00138664
0.000411481
0.00118802
0.000793802
0.000807862
0.00124001
0.000236834
0.00159476
0.00250042
-0.000799387
0.00966655
-0.00150687
0.00383106
-0.00170438
0.00285701
-0.00195088
0.00245097
-0.00220811
0.00210997
-0.00244288
0.00170613
-0.00263176
0.0012115
-0.00274683
0.000595062
-0.00273762
-0.000180907
-0.00257552
-0.001071
-0.002311
-0.00190635
-0.00200736
-0.00259253
-0.00170837
-0.00311502
-0.00141572
-0.0034914
-0.00106853
-0.0037171
-0.000653095
-0.00358889
-0.000274579
-0.0027627
0.000266581
-0.00176039
0.000374147
-0.00137351
0.000382208
-0.00111829
0.000446465
-0.000891724
0.000529009
-0.00073708
0.000619091
-0.000627051
0.000733541
-0.000528638
0.000919002
-0.000447224
0.00110585
-0.000409076
0.00128765
-0.000387568
0.0014591
-0.00035365
0.00160594
-0.00028357
0.00170291
-0.000155086
0.00171639
4.36123e-05
0.00162679
0.000297301
0.00144379
0.000594544
0.00124945
0.00098822
0.00101398
0.00147554
0.000499091
0.0021097
0.000300291
0.00269925
-0.00121916
0.00151928
-0.00169951
0.000480175
-0.00163672
-0.000704104
0.0108368
-0.00128921
0.00441624
-0.000995768
0.00256364
-0.00098767
0.00244295
-0.00112069
0.00224306
-0.00125574
0.00184124
-0.00135057
0.0013064
-0.00139461
0.000639171
-0.0013338
-0.000241638
-0.00116857
-0.00123615
-0.000976677
-0.00209816
-0.000810969
-0.00275815
-0.000695276
-0.00323062
-0.000615789
-0.0035708
-0.000497754
-0.00383505
-0.000287908
-0.00379869
-0.000107993
-0.00294258
9.49888e-05
-0.00196333
0.000132854
-0.00141133
0.000119435
-0.00110482
0.000137663
-0.000909899
0.00018374
-0.000783104
0.0002509
-0.000694157
0.000347301
-0.000624984
0.000476874
-0.000576741
0.000621599
-0.000553746
0.000774193
-0.000540107
0.000932632
-0.000512033
0.00109232
-0.000443204
0.00124063
-0.000303343
0.00134693
-6.26265e-05
0.00138647
0.000257819
0.00137777
0.000603307
0.00137482
0.000991228
0.00144078
0.00140965
0.00159474
0.0019558
0.00211202
0.00218201
0.00241605
0.00121529
0.00201568
0.00088058
0.000453586
-0.000934393
0.0122823
-0.000972109
0.00445403
-2.7946e-05
0.00161955
0.000251692
0.00216338
0.000183103
0.00231171
0.000104661
0.00191975
0.000114644
0.00129649
0.000213728
0.000540156
0.000372027
-0.000399865
0.000513032
-0.00137708
0.000577053
-0.0021621
0.000549386
-0.00273039
0.000438995
-0.00312013
0.000276069
-0.00340777
0.000139925
-0.00369882
0.000113622
-0.00377233
7.09561e-05
-0.00289987
1.15311e-05
-0.00190387
-8.26365e-05
-0.00131712
-0.000155731
-0.00103168
-0.000191339
-0.000874246
-0.000197428
-0.000776969
-0.000180516
-0.000711022
-0.000139593
-0.00066586
-7.55062e-05
-0.000640781
5.67045e-06
-0.000634876
0.000101194
-0.000635584
0.000213764
-0.000624556
0.000350458
-0.00057985
0.000519085
-0.000471923
0.000719414
-0.000262905
0.000910928
6.63557e-05
0.00107919
0.000435096
0.00127874
0.000791733
0.0015776
0.00111086
0.00207396
0.00145949
0.00286545
0.00139057
0.00352315
0.000557634
0.00360347
0.000800297
0.00413496
0.00249539
0.0103556
0.00301654
0.00393296
0.00294212
0.00169404
0.00273561
0.00236996
0.00243296
0.00261444
0.00225534
0.00209744
0.00223936
0.00131254
0.00237441
0.000405172
0.00252753
-0.000552911
0.00251543
-0.0013649
0.00232753
-0.00197411
0.0020006
-0.00240336
0.00158445
-0.00270389
0.00113661
-0.00295983
0.00075149
-0.0033136
0.000517345
-0.00353813
0.000231735
-0.00261423
-6.98785e-05
-0.00160223
-0.00029676
-0.0010902
-0.000444914
-0.000883488
-0.00054303
-0.000776088
-0.000611046
-0.000708912
-0.000659431
-0.000662597
-0.000692507
-0.000632743
-0.000713694
-0.000619554
-0.000727394
-0.000621135
-0.000734046
-0.000628891
-0.000728956
-0.000629605
-0.000701265
-0.000607499
-0.000628581
-0.000544564
-0.000472946
-0.000418496
-0.000208117
-0.000198427
9.58462e-05
0.000131181
0.000408885
0.000478744
0.000753983
0.00076581
0.00119503
0.0010185
0.00162106
0.000964587
0.0016475
0.00053123
0.000722347
0.00172549
0.00520739
0.0109866
0.014919
0.0127159
0.00389725
0.0104977
0.0045882
0.00875566
0.00435656
0.00758543
0.00326774
0.00681734
0.00208071
0.0062243
0.000998298
0.00559208
7.93932e-05
0.00488121
-0.00065395
0.00411743
-0.00121023
0.00332262
-0.00160845
0.0025169
-0.00189806
0.00174982
-0.00219265
0.00116621
-0.0027299
0.000854619
-0.00322649
0.000309089
-0.00206867
-0.000224119
-0.001069
-0.00055197
-0.000762318
-0.000757591
-0.00067783
-0.000909295
-0.000624347
-0.00103531
-0.000582856
-0.0011498
-0.000548076
-0.00126184
-0.000520666
-0.00137929
-0.000502067
-0.00150975
-0.000490642
-0.00165903
-0.000479571
-0.00183238
-0.000456217
-0.00203698
-0.000402861
-0.00228263
-0.000298879
-0.00258217
-0.000118914
-0.00293568
0.000155125
-0.00334518
0.000540718
-0.00391879
0.0010524
-0.00481819
0.00166525
-0.00609466
0.00229501
-0.00784438
0.00271434
-0.00987823
0.00256511
-0.00909584
0.000943142
-0.00349829
0.00466874
0.00509716
0.00463282
0.00462422
0.00570355
0.00328591
0.0061023
0.00286909
0.00609614
0.00208696
0.00592506
0.00116947
0.00560602
0.00039853
0.00509948
-0.000147309
0.00442467
-0.000535324
0.00363318
-0.000816855
0.00276523
-0.00103
0.00188586
-0.00131319
0.00124161
-0.00208555
0.000973082
-0.00295794
0.000166257
-0.00126182
-0.000567705
-0.000335018
-0.000893233
-0.00043676
-0.00109944
-0.000471592
-0.00127391
-0.000449841
-0.0014307
-0.000426028
-0.00158067
-0.000398076
-0.00173355
-0.000367756
-0.00189945
-0.000336133
-0.00208844
-0.000301622
-0.00230629
-0.000261692
-0.00255023
-0.000212241
-0.00280643
-0.00014663
-0.00304626
-5.90097e-05
-0.00323631
7.11729e-05
-0.00337942
0.000298269
-0.00349429
0.000655625
-0.00360602
0.00116416
-0.00373333
0.00179259
-0.00381581
0.00237752
-0.00371669
0.00261526
-0.00320576
0.00205421
-0.00176598
-0.000496611
-0.00516591
-0.000863192
0.00601722
0.00123592
0.0025252
0.00245065
0.00207127
0.00334053
0.0019793
0.00399679
0.00143079
0.00433343
0.000832918
0.00435107
0.000380991
0.00412753
7.63241e-05
0.00374639
-0.00015409
0.00324102
-0.000311394
0.00263679
-0.000425681
0.00194672
-0.000623026
0.00119251
-0.00133126
0.000372518
-0.00213794
-0.000494977
-0.000394306
-0.00110291
0.000272939
-0.00130805
-0.00023158
-0.00149884
-0.000280776
-0.00168297
-0.000265678
-0.00185338
-0.000255588
-0.00200915
-0.000242273
-0.00215072
-0.00022616
-0.00227995
-0.000206866
-0.00239988
-0.000181668
-0.00251313
-0.000148412
-0.00262006
-0.000105275
-0.00271776
-4.89037e-05
-0.00279852
2.17827e-05
-0.0028326
0.000105282
-0.00277119
0.000236893
-0.00256927
0.00045373
-0.00219106
0.00078598
-0.00165526
0.00125682
-0.00096546
0.00168775
0.000134045
0.00151578
0.00144879
0.000739493
0.00164185
-0.00068964
-0.00341615
-0.00918572
-0.0119094
-0.00584188
-0.00328486
-0.00118662
0.000817334
0.00227229
0.00313003
0.00353704
0.00364091
0.00351588
0.00323504
0.00284144
0.00225214
0.000956328
-0.00114787
-0.00151237
-0.00121131
-0.00141412
-0.00166603
-0.00190279
-0.00212942
-0.0023427
-0.00253983
-0.00271763
-0.00287024
-0.00298965
-0.0030661
-0.0030865
-0.00303674
-0.0029042
-0.00264091
-0.00216178
-0.00135146
-7.14201e-05
0.00163799
0.00317485
0.00393564
0.00326841
)
;

boundaryField
{
    floor
    {
        type            calculated;
        value           nonuniform List<scalar> 
29
(
0
0
0
0
0
0
0
0
0
0
0
0
0
0
0
0
0
0
0
0
-6.65438e-06
-1.67801e-05
-2.50304e-05
-3.2523e-05
-3.04715e-06
-5.0899e-06
-1.10659e-05
-1.58486e-05
-1.69369e-05
)
;
    }
    ceiling
    {
        type            calculated;
        value           nonuniform List<scalar> 
43
(
-5.40461e-05
-5.20687e-05
-5.02614e-05
-3.17447e-05
-2.68852e-05
-2.45597e-05
-2.40811e-05
-2.47313e-05
-2.59289e-05
-2.74544e-05
-2.89739e-05
-3.04631e-05
-3.20009e-05
-3.36445e-05
-3.53817e-05
-3.37743e-05
-2.97856e-05
-2.8106e-05
-2.8734e-05
-2.88356e-05
-2.88912e-05
-2.8929e-05
-2.8963e-05
-2.90017e-05
-2.90359e-05
-2.9039e-05
-2.8974e-05
-2.87994e-05
-2.84733e-05
-2.79507e-05
-2.72275e-05
-2.63647e-05
-2.53797e-05
-2.43091e-05
-2.31888e-05
-2.1629e-05
-2.10498e-05
-2.12751e-05
-2.23769e-05
-2.31441e-05
2.92361e-06
6.75529e-07
-5.68208e-05
)
;
    }
    sWall
    {
        type            calculated;
        value           uniform -0.000255561;
    }
    nWall
    {
        type            calculated;
        value           nonuniform List<scalar> 6(-6.29677e-05 -7.45957e-05 -7.78676e-05 -9.83441e-05 -0.000107885 -0.000124573);
    }
    sideWalls
    {
        type            empty;
        value           nonuniform 0();
    }
    glass1
    {
        type            calculated;
        value           nonuniform List<scalar> 9(-6.86961e-05 -0.00018277 -0.000275611 -0.000351418 -0.0004139 -0.000466022 -0.000511103 -0.000568564 -0.000633873);
    }
    glass2
    {
        type            calculated;
        value           nonuniform List<scalar> 2(-0.000350045 -0.000390139);
    }
    sun
    {
        type            calculated;
        value           uniform 0;
    }
    heatsource1
    {
        type            calculated;
        value           nonuniform List<scalar> 3(2.06482e-07 2.06325e-07 2.06342e-07);
    }
    heatsource2
    {
        type            calculated;
        value           nonuniform List<scalar> 4(5.14795e-08 5.16834e-08 0 0);
    }
    Table_master
    {
        type            calculated;
        value           nonuniform List<scalar> 9(-1.54842e-07 -1.5492e-07 -1.54945e-07 -1.54967e-07 -1.54987e-07 -1.55004e-07 -1.55019e-07 -1.55026e-07 -1.55005e-07);
    }
    Table_slave
    {
        type            calculated;
        value           nonuniform List<scalar> 9(1.54808e-07 1.54791e-07 1.54733e-07 1.54681e-07 1.54646e-07 1.54639e-07 1.54656e-07 1.54695e-07 1.54788e-07);
    }
    inlet
    {
        type            calculated;
        value           uniform -0.0058686;
    }
    outlet
    {
        type            calculated;
        value           nonuniform List<scalar> 2(0.0094954 0.00277584);
    }
}


// ************************************************************************* //
