// -*- C++ -*-
// File generated by PyFoam - sorry for the ugliness

FoamFile
{
 version 2.0;
 format ascii;
 class volScalarField;
 location "100";
 object T;
}

dimensions [ 0 0 0 1 0 0 0 ];

internalField nonuniform List<scalar> 459
(
  301.927
  301.598
  301.591
  301.592
  301.593
  301.593
  301.593
  301.593
  301.592
  301.591
  301.588
  301.584
  301.578
  301.573
  301.57
  301.594
  301.581
  301.571
  301.561
  301.551
  301.54
  301.53
  301.519
  301.508
  301.498
  301.488
  301.479
  301.472
  301.465
  301.46
  301.455
  301.452
  301.451
  301.472
  302.165
  301.626
  301.604
  301.61
  301.616
  301.622
  301.626
  301.628
  301.63
  301.628
  301.622
  301.61
  301.594
  301.577
  301.562
  301.557
  301.557
  301.612
  301.599
  301.586
  301.573
  301.56
  301.547
  301.531
  301.514
  301.496
  301.479
  301.463
  301.447
  301.434
  301.421
  301.412
  301.406
  301.404
  301.406
  301.449
  302.404
  301.672
  301.627
  301.64
  301.655
  301.669
  301.681
  301.691
  301.696
  301.696
  301.685
  301.663
  301.632
  301.598
  301.572
  301.564
  301.574
  301.62
  301.609
  301.6
  301.59
  301.579
  301.567
  301.548
  301.527
  301.505
  301.484
  301.463
  301.444
  301.427
  301.412
  301.399
  301.393
  301.388
  301.391
  301.44
  302.634
  301.734
  301.651
  301.668
  301.694
  301.72
  301.744
  301.764
  301.777
  301.78
  301.766
  301.731
  301.68
  301.624
  301.579
  301.564
  301.581
  301.612
  301.618
  301.621
  301.616
  301.608
  301.599
  301.589
  301.581
  301.573
  301.566
  301.559
  301.553
  301.545
  301.536
  301.526
  301.513
  301.465
  301.423
  301.4
  301.442
  302.848
  301.817
  301.68
  301.69
  301.723
  301.76
  301.797
  301.831
  301.856
  301.866
  301.852
  301.807
  301.737
  301.655
  301.585
  301.559
  301.581
  301.613
  301.63
  301.636
  301.634
  301.627
  301.619
  301.611
  301.605
  301.6
  301.595
  301.589
  301.583
  301.574
  301.563
  301.549
  301.531
  301.498
  301.453
  301.416
  301.434
  301.526
  301.566
  301.578
  303.032
  301.924
  301.735
  301.711
  301.74
  301.78
  301.824
  301.869
  301.912
  301.937
  301.927
  301.875
  301.789
  301.686
  301.591
  301.553
  301.579
  301.621
  301.645
  301.653
  301.651
  301.646
  301.639
  301.633
  301.628
  301.624
  301.619
  301.614
  301.608
  301.598
  301.584
  301.567
  301.546
  301.517
  301.478
  301.438
  301.433
  301.468
  301.485
  301.529
  303.178
  302.107
  301.905
  301.803
  301.783
  301.8
  301.836
  301.88
  301.94
  301.983
  301.975
  301.917
  301.823
  301.708
  301.594
  301.546
  301.577
  301.628
  301.66
  301.669
  301.668
  301.664
  301.659
  301.655
  301.651
  301.647
  301.643
  301.638
  301.631
  301.621
  301.606
  301.585
  301.561
  301.533
  301.499
  301.463
  301.448
  301.457
  301.47
  301.507
  303.422
  302.63
  302.402
  302.193
  302.046
  301.97
  301.948
  301.96
  302.004
  302.026
  301.997
  301.925
  301.822
  301.702
  301.584
  301.538
  301.577
  301.638
  301.675
  301.685
  301.685
  301.682
  301.678
  301.675
  301.672
  301.669
  301.666
  301.661
  301.655
  301.646
  301.633
  301.614
  301.588
  301.563
  301.538
  301.514
  301.511
  301.539
  301.574
  301.765
  303.767
  303.422
  303.109
  302.82
  302.578
  302.399
  302.284
  302.218
  302.17
  302.09
  301.989
  301.88
  301.767
  301.652
  301.543
  301.523
  301.58
  301.653
  301.691
  301.702
  301.702
  301.7
  301.698
  301.696
  301.694
  301.692
  301.69
  301.687
  301.684
  301.68
  301.678
  301.679
  301.685
  301.698
  301.723
  301.764
  301.818
  301.87
  301.902
  301.979
  295.783
  299.387
  300.939
  301.473
  301.677
  301.749
  301.754
  301.743
  301.711
  301.665
  301.609
  301.542
  301.471
  301.509
  301.598
  301.677
  301.711
  301.72
  301.721
  301.72
  301.719
  301.718
  301.717
  301.717
  301.718
  301.719
  301.721
  301.724
  301.729
  301.734
  301.743
  301.757
  301.781
  301.813
  301.85
  301.882
  301.9
  301.918
  296.551
  299.328
  300.482
  301.022
  301.283
  301.399
  301.44
  301.452
  301.455
  301.451
  301.439
  301.418
  301.397
  301.518
  301.654
  301.713
  301.736
  301.742
  301.743
  301.743
  301.742
  301.742
  301.742
  301.742
  301.743
  301.744
  301.746
  301.75
  301.754
  301.759
  301.766
  301.778
  301.795
  301.818
  301.844
  301.868
  301.863
  301.897
  298.288
  298.233
  298.23
  299.954
  300.618
  300.993
  301.177
  301.247
  301.28
  301.295
  301.306
  301.315
  301.324
  301.331
  301.349
  301.575
  301.749
  301.767
  301.782
  301.784
  301.785
  301.785
  301.785
  301.785
  301.786
  301.786
  301.786
  301.786
  301.785
  301.785
  301.785
  301.786
  301.787
  301.791
  301.799
  301.818
  301.831
  301.841
  301.844
  301.884
)
;

boundaryField
{
  floor
  {
    type wallHeatTransfer;
    Tinf uniform 305.2;
    alphaWall uniform 0.24;
    value nonuniform List<scalar> 29
(
  301.974
  302.267
  302.166
  302.168
  302.174
  302.179
  302.185
  302.194
  302.205
  302.216
  302.226
  302.236
  302.247
  302.257
  302.267
  302.278
  302.29
  302.304
  302.306
  302.354
  302.354
  302.191
  302.105
  302.059
  301.974
  302.267
  302.1
  302.04
  301.99
)
;
  }
  ceiling
  {
    type wallHeatTransfer;
    Tinf uniform 303.2;
    alphaWall uniform 0.24;
    value nonuniform List<scalar> 43
(
  298.581
  298.517
  298.504
  300.126
  300.763
  301.125
  301.306
  301.381
  301.42
  301.444
  301.463
  301.48
  301.497
  301.513
  301.54
  301.759
  301.91
  301.918
  301.937
  301.94
  301.941
  301.942
  301.942
  301.943
  301.943
  301.943
  301.943
  301.942
  301.94
  301.937
  301.932
  301.928
  301.925
  301.923
  301.923
  301.934
  301.945
  301.955
  301.965
  302.009
  303.741
  303.413
  296.902
)
;
  }
  sWall
  {
    type wallHeatTransfer;
    Tinf uniform 315.2;
    alphaWall uniform 0.36;
    value uniform 299.764;
  }
  nWall
  {
    type wallHeatTransfer;
    Tinf uniform 307.2;
    alphaWall uniform 0.36;
    value nonuniform List<scalar> 6
(
  302.508
  302.431
  302.307
  302.613
  302.587
  302.608
)
;
  }
  sideWalls
  {
    type empty;
  }
  glass1
  {
    type wallHeatTransfer;
    Tinf uniform 315.2;
    alphaWall uniform 4.3;
    value nonuniform List<scalar> 9
(
  311.65
  310.786
  310.208
  309.745
  309.366
  309.042
  308.765
  308.818
  309.056
)
;
  }
  glass2
  {
    type wallHeatTransfer;
    Tinf uniform 307.2;
    alphaWall uniform 4.3;
    value nonuniform List<scalar> 2
(
  304.948
  305.137
)
;
  }
  sun
  {
    type wallHeatTransfer;
    Tinf uniform 305.2;
    alphaWall uniform 0.24;
    value nonuniform List<scalar> 14
(
  302.352
  302.048
  302.045
  302.035
  302.026
  302.019
  302.012
  302.006
  302
  301.994
  301.988
  301.983
  301.978
  301.975
)
;
  }
  heatsource1
  {
    type fixedGradient;
    gradient uniform 0;
  }
  heatsource2
  {
    type fixedGradient;
    gradient uniform 0;
  }
  Table_master
  {
    type zeroGradient;
  }
  Table_slave
  {
    type zeroGradient;
  }
  inlet
  {
    type fixedValue;
    value uniform 290.15;
  }
  outlet
  {
    type zeroGradient;
  }
} 	// ************************************************************************* //

