// -*- C++ -*-
// File generated by PyFoam - sorry for the ugliness

FoamFile
{
 version 2.0;
 format ascii;
 class volVectorField;
 location "100";
 object U;
}

dimensions [ 0 1 -1 0 0 0 0 ];

internalField nonuniform List<vector> 459
(
  (0.0697684 0.0814287 0)
  (-0.159513 0.0152657 0)
  (-0.167306 0.0147471 0)
  (-0.195079 0.0121941 0)
  (-0.218875 0.00869784 0)
  (-0.238084 0.00482003 0)
  (-0.251948 0.000557217 0)
  (-0.259602 -0.00421277 0)
  (-0.25989 -0.00964402 0)
  (-0.251668 -0.0160463 0)
  (-0.233773 -0.0235658 0)
  (-0.204505 -0.0323695 0)
  (-0.163413 -0.043768 0)
  (-0.119282 -0.0607509 0)
  (-0.103746 -0.0835497 0)
  (0.0563669 0.0216536 0)
  (0.00156478 -0.0220737 0)
  (0.0271642 -0.019579 0)
  (0.046882 -0.0140743 0)
  (0.0595538 -0.00985255 0)
  (0.0667549 -0.00665033 0)
  (0.0702149 -0.00393319 0)
  (0.071019 -0.00243243 0)
  (0.0704575 -0.00183541 0)
  (0.0696031 -0.00163074 0)
  (0.068867 -0.0015425 0)
  (0.0682489 -0.00147352 0)
  (0.0676271 -0.00134262 0)
  (0.0667526 -0.000990126 0)
  (0.0650357 -5.44934e-05 0)
  (0.0612873 0.0019457 0)
  (0.0542813 0.00398818 0)
  (0.0496604 0.00560286 0)
  (-0.0197904 0.0248452 0)
  (0.276057 0.172036 0)
  (-0.166843 0.0463664 0)
  (-0.140642 0.0452206 0)
  (-0.172231 0.0401682 0)
  (-0.196395 0.0338916 0)
  (-0.215845 0.0268105 0)
  (-0.230135 0.0186682 0)
  (-0.238555 0.00910006 0)
  (-0.239988 -0.00222253 0)
  (-0.233451 -0.0152542 0)
  (-0.218661 -0.0290992 0)
  (-0.195353 -0.0429571 0)
  (-0.165175 -0.0573097 0)
  (-0.134276 -0.0735063 0)
  (-0.110489 -0.0846814 0)
  (-0.0794623 -0.0612367 0)
  (-0.0324495 -0.0360398 0)
  (0.120629 -0.0317093 0)
  (0.0554266 -0.0291866 0)
  (0.0503644 -0.0223447 0)
  (0.05857 -0.0154022 0)
  (0.0646662 -0.0104721 0)
  (0.068526 -0.00620682 0)
  (0.0706707 -0.000753239 0)
  (0.070458 0.00229768 0)
  (0.0697012 0.00328097 0)
  (0.0693008 0.00341388 0)
  (0.069159 0.0033062 0)
  (0.0690564 0.00317735 0)
  (0.0689158 0.00321072 0)
  (0.0686836 0.00375152 0)
  (0.0678194 0.00566159 0)
  (0.0639429 0.011434 0)
  (0.0542055 0.0161719 0)
  (0.0540068 0.0190629 0)
  (-0.0710745 0.0528304 0)
  (0.459319 0.260596 0)
  (-0.20577 0.0815133 0)
  (-0.108525 0.0760883 0)
  (-0.144148 0.0642364 0)
  (-0.165973 0.0528084 0)
  (-0.1841 0.040452 0)
  (-0.197932 0.0264165 0)
  (-0.206682 0.0101946 0)
  (-0.208985 -0.00838734 0)
  (-0.20347 -0.0290393 0)
  (-0.190498 -0.0505638 0)
  (-0.170703 -0.0711402 0)
  (-0.146315 -0.0898152 0)
  (-0.120654 -0.105168 0)
  (-0.0944723 -0.110177 0)
  (-0.0634397 -0.0927904 0)
  (-0.0321262 -0.069776 0)
  (0.0934897 -0.0636361 0)
  (0.0307825 -0.0424924 0)
  (0.034912 -0.0274496 0)
  (0.045207 -0.020201 0)
  (0.0521443 -0.0159058 0)
  (0.0571815 -0.0126767 0)
  (0.0612315 -0.00890876 0)
  (0.060322 -0.00586836 0)
  (0.0596026 -0.00446384 0)
  (0.060177 -0.00387201 0)
  (0.0611902 -0.0036065 0)
  (0.0620912 -0.00346668 0)
  (0.0629087 -0.00328193 0)
  (0.0641602 -0.00271472 0)
  (0.0670562 0.000212731 0)
  (0.0649536 0.0170056 0)
  (0.0506678 0.0282556 0)
  (0.0625974 0.0347647 0)
  (-0.117278 0.0804892 0)
  (0.616223 0.33359 0)
  (-0.257712 0.117627 0)
  (-0.0715183 0.103639 0)
  (-0.112936 0.0858893 0)
  (-0.129968 0.0715235 0)
  (-0.145171 0.0561001 0)
  (-0.157619 0.0381969 0)
  (-0.166262 0.0168929 0)
  (-0.169203 -0.00823853 0)
  (-0.164268 -0.0363681 0)
  (-0.152914 -0.064921 0)
  (-0.136616 -0.0909586 0)
  (-0.117726 -0.112879 0)
  (-0.0980221 -0.129089 0)
  (-0.0765989 -0.135211 0)
  (-0.0522048 -0.123951 0)
  (-0.0294593 -0.0891542 0)
  (0.00844355 0.0143153 0)
  (0.0307124 -0.0495637 0)
  (0.0242456 -0.0448158 0)
  (0.0269834 -0.0327762 0)
  (0.0330954 -0.0258609 0)
  (0.0380989 -0.0210241 0)
  (0.041778 -0.015867 0)
  (0.0474341 -0.0111922 0)
  (0.0579805 -0.00974356 0)
  (0.0678366 -0.00878267 0)
  (0.0762777 -0.00782469 0)
  (0.0831568 -0.00644914 0)
  (0.0876622 -0.0043699 0)
  (0.0882161 -0.00143898 0)
  (0.0830233 0.00264791 0)
  (0.0697219 0.00831165 0)
  (0.0555738 0.0284997 0)
  (0.0395589 0.045306 0)
  (0.06925 0.0571913 0)
  (-0.175496 0.103009 0)
  (0.745538 0.392602 0)
  (-0.309268 0.152128 0)
  (-0.0322818 0.121473 0)
  (-0.0788445 0.101022 0)
  (-0.0897749 0.0855319 0)
  (-0.100492 0.0683825 0)
  (-0.110097 0.0477198 0)
  (-0.117443 0.0222571 0)
  (-0.119905 -0.00870682 0)
  (-0.114292 -0.0434923 0)
  (-0.104177 -0.0775102 0)
  (-0.091667 -0.106604 0)
  (-0.078837 -0.129483 0)
  (-0.0666912 -0.146 0)
  (-0.0532774 -0.154489 0)
  (-0.0370328 -0.147145 0)
  (-0.0207975 -0.114025 0)
  (-0.000145543 -0.0708959 0)
  (0.0147151 -0.0621623 0)
  (0.0167469 -0.0489723 0)
  (0.0175676 -0.0374712 0)
  (0.020672 -0.0302876 0)
  (0.0244471 -0.0252555 0)
  (0.0287662 -0.020591 0)
  (0.034995 -0.0159885 0)
  (0.0431642 -0.0138162 0)
  (0.0512397 -0.0126763 0)
  (0.0588346 -0.0112101 0)
  (0.0657054 -0.00846082 0)
  (0.0711392 -0.00366868 0)
  (0.074096 0.0033814 0)
  (0.0728406 0.0122215 0)
  (0.067022 0.0230489 0)
  (0.0584506 0.0399256 0)
  (0.0433619 0.0593988 0)
  (0.0772573 0.0810089 0)
  (-0.0532469 0.115 0)
  (0.0527758 0.0210523 0)
  (-0.0749712 -0.0394649 0)
  (-0.306207 -0.0647598 0)
  (0.833871 0.444271 0)
  (-0.353142 0.180329 0)
  (-0.000654179 0.122018 0)
  (-0.0404817 0.109442 0)
  (-0.0458016 0.0947663 0)
  (-0.0517784 0.0764754 0)
  (-0.0573075 0.0543095 0)
  (-0.0617248 0.026473 0)
  (-0.0608683 -0.00926017 0)
  (-0.0525303 -0.0504971 0)
  (-0.0441142 -0.0879219 0)
  (-0.036639 -0.117286 0)
  (-0.0310238 -0.138747 0)
  (-0.0277926 -0.154155 0)
  (-0.0239975 -0.164636 0)
  (-0.017019 -0.160696 0)
  (-0.00890243 -0.124316 0)
  (-0.00121804 -0.0821781 0)
  (0.00524859 -0.0610496 0)
  (0.00550677 -0.0480954 0)
  (0.00523912 -0.0388934 0)
  (0.0066248 -0.0328867 0)
  (0.0090843 -0.0286361 0)
  (0.0125757 -0.0250697 0)
  (0.0174253 -0.0222347 0)
  (0.0233914 -0.0209616 0)
  (0.0297796 -0.0202206 0)
  (0.0363856 -0.0188345 0)
  (0.0431403 -0.0157053 0)
  (0.0497359 -0.00967071 0)
  (0.0558534 0.000172337 0)
  (0.0594765 0.0127433 0)
  (0.0600858 0.0269417 0)
  (0.0598927 0.0439504 0)
  (0.0555021 0.0636565 0)
  (0.0857946 0.0895553 0)
  (0.0488457 0.108147 0)
  (0.106147 0.0699523 0)
  (0.13138 0.0464342 0)
  (-0.145378 -0.00930109 0)
  (0.863683 0.491101 0)
  (-0.373196 0.171383 0)
  (0.0211963 0.0764584 0)
  (0.0145217 0.107526 0)
  (0.00962275 0.106025 0)
  (0.00435872 0.0836564 0)
  (0.00246834 0.0569673 0)
  (0.00148769 0.0258965 0)
  (0.0115774 -0.0162274 0)
  (0.0225393 -0.060152 0)
  (0.0266547 -0.0952935 0)
  (0.0263898 -0.120985 0)
  (0.0226231 -0.138938 0)
  (0.015414 -0.152165 0)
  (0.00842575 -0.164309 0)
  (0.00493882 -0.165012 0)
  (0.0041964 -0.127217 0)
  (0.000112492 -0.0847111 0)
  (-0.00212489 -0.0592992 0)
  (-0.00539148 -0.0461095 0)
  (-0.00778073 -0.0384615 0)
  (-0.00860065 -0.0336762 0)
  (-0.00831071 -0.030401 0)
  (-0.00703592 -0.0280242 0)
  (-0.0047389 -0.0265312 0)
  (-0.00161596 -0.0260334 0)
  (0.00216821 -0.0258846 0)
  (0.00647396 -0.0251647 0)
  (0.0115793 -0.0228191 0)
  (0.0177586 -0.0174857 0)
  (0.0254129 -0.00751248 0)
  (0.0358414 0.00748941 0)
  (0.0433259 0.0232441 0)
  (0.0510674 0.0394708 0)
  (0.0578682 0.0562171 0)
  (0.0847525 0.0774146 0)
  (0.0960621 0.0828 0)
  (0.136801 0.0502199 0)
  (0.182262 0.0419297 0)
  (-0.0263231 0.10249 0)
  (0.965183 0.504926 0)
  (-0.11526 0.15655 0)
  (0.094343 0.00988476 0)
  (0.139755 0.0464287 0)
  (0.117482 0.0739402 0)
  (0.0977679 0.061888 0)
  (0.0925427 0.0343559 0)
  (0.0939349 -0.000294962 0)
  (0.107146 -0.0361742 0)
  (0.11257 -0.0674849 0)
  (0.107176 -0.0933593 0)
  (0.0947844 -0.113002 0)
  (0.0779255 -0.127264 0)
  (0.0577715 -0.139015 0)
  (0.0394041 -0.153194 0)
  (0.0258651 -0.159443 0)
  (0.0173687 -0.121267 0)
  (0.00135106 -0.0775079 0)
  (-0.00951764 -0.0529488 0)
  (-0.0164628 -0.0420935 0)
  (-0.0215321 -0.0362703 0)
  (-0.024968 -0.0326534 0)
  (-0.0273692 -0.030191 0)
  (-0.029043 -0.0285785 0)
  (-0.0301417 -0.0278014 0)
  (-0.0308617 -0.0277731 0)
  (-0.0313304 -0.0280756 0)
  (-0.0314799 -0.0281162 0)
  (-0.0310065 -0.0272221 0)
  (-0.029378 -0.0246141 0)
  (-0.0255936 -0.0193685 0)
  (-0.0166547 -0.010401 0)
  (-0.000356315 0.0029368 0)
  (0.0117671 0.0163595 0)
  (0.0232088 0.0261447 0)
  (0.0449321 0.0364095 0)
  (0.0617342 0.0273307 0)
  (0.0772968 -0.00510945 0)
  (0.143235 0.0567459 0)
  (-0.522223 0.246522 0)
  (1.1011 0.454673 0)
  (0.532577 0.299297 0)
  (0.535404 0.22642 0)
  (0.509346 0.195023 0)
  (0.422604 0.17211 0)
  (0.345994 0.133553 0)
  (0.301915 0.0882365 0)
  (0.2787 0.0437471 0)
  (0.256004 0.00118794 0)
  (0.226332 -0.0363387 0)
  (0.19391 -0.0655225 0)
  (0.160127 -0.0861243 0)
  (0.125449 -0.100299 0)
  (0.0900885 -0.112481 0)
  (0.061457 -0.130346 0)
  (0.040045 -0.144177 0)
  (0.0275038 -0.103554 0)
  (-0.000449475 -0.06061 0)
  (-0.0190421 -0.0426645 0)
  (-0.0288123 -0.0366131 0)
  (-0.0360376 -0.0333801 0)
  (-0.0418312 -0.0311306 0)
  (-0.0468603 -0.0293757 0)
  (-0.0516047 -0.0280684 0)
  (-0.0564234 -0.0272446 0)
  (-0.0616617 -0.0268058 0)
  (-0.0676194 -0.0264071 0)
  (-0.0745224 -0.0254819 0)
  (-0.0825849 -0.0232906 0)
  (-0.092149 -0.0189485 0)
  (-0.103861 -0.0113794 0)
  (-0.118341 0.000494125 0)
  (-0.1336 0.0166494 0)
  (-0.151989 0.0359316 0)
  (-0.182839 0.057196 0)
  (-0.228308 0.0776145 0)
  (-0.292554 0.090772 0)
  (-0.363577 0.0933188 0)
  (-0.439551 0.0865179 0)
  (-0.719322 0.0696194 0)
  (-0.346614 0.0956907 0)
  (0.171735 0.177481 0)
  (0.265416 0.172444 0)
  (0.258948 0.140378 0)
  (0.257521 0.0971898 0)
  (0.256703 0.0522529 0)
  (0.248729 0.0130701 0)
  (0.231926 -0.0175379 0)
  (0.206055 -0.0385911 0)
  (0.174023 -0.0522511 0)
  (0.137836 -0.0611005 0)
  (0.0988421 -0.069718 0)
  (0.06953 -0.090301 0)
  (0.040446 -0.11602 0)
  (0.0266684 -0.0654297 0)
  (-0.0104834 -0.0296748 0)
  (-0.0333122 -0.0226572 0)
  (-0.0434635 -0.0220781 0)
  (-0.0511153 -0.0220627 0)
  (-0.0580675 -0.0222008 0)
  (-0.0645299 -0.0224183 0)
  (-0.070899 -0.0227795 0)
  (-0.0776121 -0.0233197 0)
  (-0.0851328 -0.0239336 0)
  (-0.0938539 -0.0242739 0)
  (-0.103902 -0.0236631 0)
  (-0.114924 -0.0210816 0)
  (-0.125911 -0.0153182 0)
  (-0.135378 -0.0051922 0)
  (-0.142117 0.00942078 0)
  (-0.146631 0.0286056 0)
  (-0.150158 0.0527436 0)
  (-0.154948 0.0798225 0)
  (-0.162021 0.103649 0)
  (-0.167519 0.111264 0)
  (-0.150031 0.0801984 0)
  (-0.0866898 -0.035063 0)
  (-0.293246 -0.25754 0)
  (-0.161968 0.268203 0)
  (0.0874242 0.185021 0)
  (0.0926357 0.135391 0)
  (0.122663 0.115304 0)
  (0.155581 0.087749 0)
  (0.178478 0.058967 0)
  (0.187349 0.0385904 0)
  (0.183674 0.0284224 0)
  (0.170821 0.0214315 0)
  (0.151284 0.0158343 0)
  (0.126981 0.0109013 0)
  (0.0987736 -0.00105494 0)
  (0.0768741 -0.0472993 0)
  (0.0233798 -0.100656 0)
  (-0.00536787 0.00889459 0)
  (-0.0356956 0.0559777 0)
  (-0.0524008 0.0410455 0)
  (-0.0606947 0.0383299 0)
  (-0.0683539 0.0407841 0)
  (-0.0759223 0.0433171 0)
  (-0.0829003 0.0462376 0)
  (-0.0892414 0.0494077 0)
  (-0.0950154 0.052625 0)
  (-0.100336 0.055719 0)
  (-0.105331 0.0583268 0)
  (-0.110098 0.0598832 0)
  (-0.114675 0.0596889 0)
  (-0.11887 0.0568116 0)
  (-0.121666 0.0517827 0)
  (-0.120981 0.0493512 0)
  (-0.114429 0.0527983 0)
  (-0.100747 0.0640246 0)
  (-0.0810643 0.0828321 0)
  (-0.0570753 0.102536 0)
  (-0.0312407 0.11281 0)
  (0.0134152 0.093925 0)
  (0.142973 0.0101337 0)
  (-0.198504 -0.172708 0)
  (-0.201418 -0.398359 0)
  (-0.483229 -0.113345 0)
  (-0.360374 0.145903 0)
  (-0.191178 0.0314262 0)
  (-0.106547 0.00324017 0)
  (-0.00928983 0.00321116 0)
  (0.06668 -0.0242179 0)
  (0.113923 -0.0546573 0)
  (0.143393 -0.084221 0)
  (0.156001 -0.112809 0)
  (0.15591 -0.136907 0)
  (0.146749 -0.157115 0)
  (0.131639 -0.176097 0)
  (0.111485 -0.197 0)
  (0.087388 -0.226485 0)
  (-0.015912 -0.242217 0)
  (-0.0710651 -0.21082 0)
  (-0.055936 -0.187265 0)
  (-0.0558722 -0.215971 0)
  (-0.0661422 -0.214648 0)
  (-0.0766061 -0.212635 0)
  (-0.0865803 -0.211089 0)
  (-0.0960474 -0.209913 0)
  (-0.10488 -0.20899 0)
  (-0.112981 -0.207931 0)
  (-0.120149 -0.206097 0)
  (-0.126068 -0.202669 0)
  (-0.130345 -0.196666 0)
  (-0.132565 -0.186935 0)
  (-0.132327 -0.172137 0)
  (-0.128951 -0.152358 0)
  (-0.120301 -0.130007 0)
  (-0.102505 -0.105279 0)
  (-0.0728201 -0.0779762 0)
  (-0.0340521 -0.0475792 0)
  (0.0380342 -0.00922519 0)
  (0.0955282 -0.0120099 0)
  (0.150756 -0.0427177 0)
  (0.198329 -0.0987864 0)
  (-0.127238 -0.178401 0)
)
;

boundaryField
{
  floor
  {
    type noSlip;
  }
  ceiling
  {
    type noSlip;
  }
  sWall
  {
    type noSlip;
  }
  nWall
  {
    type noSlip;
  }
  sideWalls
  {
    type empty;
  }
  glass1
  {
    type noSlip;
  }
  glass2
  {
    type noSlip;
  }
  sun
  {
    type noSlip;
  }
  heatsource1
  {
    type noSlip;
  }
  heatsource2
  {
    type noSlip;
  }
  Table_master
  {
    type noSlip;
  }
  Table_slave
  {
    type noSlip;
  }
  inlet
  {
    type fixedValue;
    value uniform (0.277164 -0.114805 0);
  }
  outlet
  {
    type zeroGradient;
  }
} 	// ************************************************************************* //

