/*--------------------------------*- C++ -*----------------------------------*\
  =========                 |
  \\      /  F ield         | OpenFOAM: The Open Source CFD Toolbox
   \\    /   O peration     | Website:  https://openfoam.org
    \\  /    A nd           | Version:  6
     \\/     M anipulation  |
\*---------------------------------------------------------------------------*/
FoamFile
{
    version     2.0;
    format      ascii;
    class       volScalarField;
    location    "120";
    object      alphat;
}
// * * * * * * * * * * * * * * * * * * * * * * * * * * * * * * * * * * * * * //

dimensions      [1 -1 -1 0 0 0 0];

internalField   nonuniform List<scalar> 
459
(
0.00168683
0.00190857
0.00203696
0.00179195
0.00138419
0.00119796
0.00104926
0.000936366
0.000871417
0.000812226
0.000763262
0.000725099
0.000693342
0.00066667
0.000645623
0.000536579
0.000621236
0.000624143
0.000549191
0.000478402
0.00041207
0.000349786
0.000282071
0.000254471
0.000248107
0.000245442
0.000242133
0.000240763
0.000242507
0.000254038
0.000376391
0.00052022
0.000540974
0.00049524
0.00168006
0.00301382
0.00396582
0.00492267
0.0049684
0.00459305
0.00419048
0.00366797
0.003114
0.00317145
0.00324067
0.00304521
0.00269255
0.00221586
0.00156154
0.000668829
0.000505353
0.000685793
0.00131455
0.00144738
0.00143332
0.00121428
0.000936824
0.000616212
0.000490536
0.000520466
0.000537469
0.000493974
0.000440389
0.000410731
0.000445747
0.000579382
0.000947345
0.00143592
0.00165032
0.000646963
0.00260839
0.00339009
0.00372581
0.00402632
0.00441131
0.00466646
0.0047913
0.00484789
0.00441222
0.00391472
0.00410628
0.00394235
0.00339634
0.00271221
0.0019677
0.00129326
0.000731579
0.000933952
0.0023692
0.00202219
0.00164706
0.0013331
0.00108938
0.000387673
0.000318106
0.000283677
0.000261531
0.000245316
0.000232149
0.000233672
0.000320641
0.000516304
0.00145209
0.00198482
0.00159724
0.000682982
0.00377324
0.0045413
0.00446896
0.00432794
0.00433559
0.00452517
0.00480703
0.00515755
0.00523689
0.00492043
0.00492546
0.00493766
0.00437174
0.00355157
0.00263328
0.00179251
0.00122793
0.00102146
0.00210461
0.00193217
0.00174674
0.00154643
0.00132827
0.00108155
0.000871814
0.000909679
0.000960127
0.00102096
0.0010907
0.00116996
0.0012562
0.00128426
0.00126914
0.00154026
0.00192007
0.00230561
0.00107602
0.00405151
0.00553342
0.00511771
0.00464231
0.0044308
0.00451373
0.00482793
0.00534449
0.0057248
0.00570633
0.00585421
0.00623509
0.00614508
0.0058137
0.00539572
0.00491732
0.00444811
0.00407084
0.00386856
0.00369541
0.00356899
0.00345673
0.0033772
0.00332732
0.00333269
0.00344625
0.00364815
0.0039183
0.00421879
0.0044996
0.00470541
0.00475369
0.00464884
0.0044206
0.00381196
0.00328009
0.00232778
0.00115659
0.00101913
0.00112155
0.00426115
0.00599437
0.00517607
0.00451989
0.00433195
0.00444241
0.00483402
0.00550313
0.00605709
0.00611941
0.00641364
0.00709402
0.00733079
0.0073166
0.00722557
0.00705191
0.00677797
0.00643049
0.00605256
0.00566604
0.00531197
0.00501426
0.00476146
0.00453879
0.00436667
0.00430212
0.00438376
0.0045973
0.00487749
0.00513291
0.00529544
0.00533245
0.0052647
0.00516192
0.00492498
0.00439677
0.0037297
0.00285307
0.00241615
0.00122961
0.00448555
0.00564212
0.00409876
0.00424662
0.00423786
0.00443235
0.00489698
0.00563174
0.00621306
0.00631567
0.006652
0.00744653
0.00786172
0.00799714
0.00804837
0.00801474
0.00786882
0.00761539
0.00728588
0.00691698
0.00654493
0.00619218
0.00585001
0.00549617
0.00513922
0.00486159
0.0047769
0.00491589
0.00517645
0.00540003
0.00548485
0.00543043
0.00531943
0.00526499
0.00536091
0.00542477
0.00512212
0.00447659
0.00384759
0.00151372
0.00478369
0.00529984
0.0040865
0.00389578
0.00435569
0.00463203
0.00508173
0.0057669
0.00630499
0.00641973
0.00669964
0.00738557
0.00784496
0.00803105
0.00813366
0.00816307
0.0080988
0.00793614
0.00769277
0.00739838
0.00708629
0.00678173
0.0064878
0.00618774
0.00586002
0.0055201
0.00529366
0.00533846
0.00557335
0.00575994
0.00574747
0.00553533
0.00521603
0.00490759
0.00468733
0.00450049
0.00406623
0.00350287
0.00301513
0.00154568
0.0052841
0.00614697
0.00761001
0.00384519
0.00458051
0.00522263
0.00550197
0.00602601
0.00648292
0.00656143
0.00659375
0.00693512
0.00729082
0.00746388
0.00755127
0.00758106
0.00754913
0.00744896
0.00728549
0.00707585
0.00684516
0.00661818
0.00641072
0.00623288
0.00609912
0.00601168
0.00588932
0.00587467
0.0061027
0.0063327
0.00632512
0.00602569
0.00548189
0.0047877
0.00407359
0.00344773
0.0029649
0.00263574
0.00242593
0.00176164
0.0124164
0.00632229
0.00423278
0.00604941
0.00621031
0.00650663
0.0067836
0.00657081
0.00636221
0.0063397
0.00639987
0.00640526
0.00637983
0.00633869
0.00628236
0.00620449
0.00610093
0.00597469
0.00583634
0.00570067
0.0055826
0.00549935
0.00548037
0.00557488
0.00582414
0.00620249
0.00663655
0.00701182
0.00722916
0.00749883
0.0078277
0.00813232
0.00813534
0.00760971
0.00676364
0.00600824
0.00545777
0.00184351
0.00531235
0.00361133
0.00576787
0.00631893
0.00641586
0.00652633
0.00634105
0.00587031
0.00546944
0.00519445
0.00500057
0.0047869
0.00459526
0.00444051
0.00432259
0.00423466
0.00416796
0.00411509
0.00407228
0.00404024
0.00402372
0.00403212
0.00408343
0.00421098
0.00446286
0.00486523
0.00534421
0.00575858
0.0060536
0.00632419
0.00666153
0.00706128
0.00738866
0.00745036
0.00716441
0.00654421
0.00519054
0.00178558
0.00264198
0.00312731
0.00367967
0.00184841
0.00184719
0.00198425
0.00201265
0.00196462
0.00184709
0.00172751
0.00162245
0.00153105
0.00145018
0.00138086
0.00131955
0.00126431
0.00121412
0.00116849
0.00112717
0.00109009
0.00105719
0.00102847
0.00100398
0.000983916
0.000968816
0.000959993
0.000960073
0.000972875
0.00100415
0.0010589
0.00113274
0.00121898
0.00131731
0.00144025
0.00159563
0.00174274
0.00179491
0.00173029
0.00164761
0.00149121
)
;

boundaryField
{
    floor
    {
        type            compressible::alphatWallFunction;
        Prt             0.85;
        value           nonuniform List<scalar> 
29
(
9.11285e-05
7.47831e-05
8.75132e-05
8.79369e-05
7.66651e-05
6.58565e-05
5.55546e-05
4.5686e-05
3.46952e-05
3.01206e-05
2.90505e-05
2.85991e-05
2.80398e-05
2.78065e-05
2.80949e-05
3.00261e-05
4.9972e-05
7.23213e-05
7.54619e-05
6.84721e-05
6.84712e-05
9.13132e-05
9.66365e-05
0.000152935
9.11274e-05
7.47821e-05
9.70514e-05
0.000132896
0.000145243
)
;
    }
    ceiling
    {
        type            compressible::alphatWallFunction;
        Prt             0.85;
        value           nonuniform List<scalar> 
43
(
0.000359567
0.000420375
0.000488402
0.000257412
0.000257257
0.000275202
0.000278907
0.000272649
0.000257256
0.000241478
0.000227517
0.000215288
0.000204399
0.000195012
0.000186665
0.000179107
0.000172208
0.000165907
0.00016018
0.000155019
0.000150425
0.000146402
0.000142961
0.000140135
0.000138002
0.000136753
0.00013676
0.000138563
0.000142964
0.000150632
0.000160903
0.000172792
0.000186222
0.000202866
0.000223721
0.000243295
0.000250217
0.000241706
0.000230751
0.000209845
0.000680777
0.00078166
0.000684036
)
;
    }
    sWall
    {
        type            compressible::alphatWallFunction;
        Prt             0.85;
        value           uniform 0.000358444;
    }
    nWall
    {
        type            compressible::alphatWallFunction;
        Prt             0.85;
        value           nonuniform List<scalar> 6(0.000158991 0.000173895 0.000212455 0.000256299 0.000248678 0.000209475);
    }
    sideWalls
    {
        type            empty;
    }
    glass1
    {
        type            compressible::alphatWallFunction;
        Prt             0.85;
        value           nonuniform List<scalar> 9(0.000231166 0.000230429 0.000349536 0.000492603 0.00052605 0.000551094 0.000577768 0.000613036 0.00067184);
    }
    glass2
    {
        type            compressible::alphatWallFunction;
        Prt             0.85;
        value           nonuniform List<scalar> 2(0.00021512 0.000243744);
    }
    sun
    {
        type            compressible::alphatWallFunction;
        Prt             0.85;
        value           nonuniform List<scalar> 
14
(
0.000236046
0.000265286
0.000282042
0.000249925
0.000195339
0.000169848
0.000149186
0.00013326
0.000124015
0.00011551
0.000108416
0.000102847
9.81846e-05
9.42481e-05
)
;
    }
    heatsource1
    {
        type            compressible::alphatWallFunction;
        Prt             0.85;
        value           nonuniform List<scalar> 3(0.00016429 0.000145106 0.000159413);
    }
    heatsource2
    {
        type            compressible::alphatWallFunction;
        Prt             0.85;
        value           nonuniform List<scalar> 4(9.47179e-05 7.01655e-05 7.01646e-05 0.000103926);
    }
    Table_master
    {
        type            compressible::alphatWallFunction;
        Prt             0.85;
        value           nonuniform List<scalar> 9(5.18582e-05 4.07128e-05 3.50816e-05 3.14141e-05 2.87027e-05 2.64834e-05 2.67494e-05 4.115e-05 7.18404e-05);
    }
    Table_slave
    {
        type            compressible::alphatWallFunction;
        Prt             0.85;
        value           nonuniform List<scalar> 9(0.0001242 0.000129605 0.000136765 0.000145341 0.000155104 0.000166113 0.000178014 0.000181873 0.000179815);
    }
    inlet
    {
        type            fixedValue;
        value           uniform 1.94e-05;
    }
    outlet
    {
        type            zeroGradient;
    }
}


// ************************************************************************* //
