/*--------------------------------*- C++ -*----------------------------------*\
  =========                 |
  \\      /  F ield         | OpenFOAM: The Open Source CFD Toolbox
   \\    /   O peration     | Website:  https://openfoam.org
    \\  /    A nd           | Version:  6
     \\/     M anipulation  |
\*---------------------------------------------------------------------------*/
FoamFile
{
    version     2.0;
    format      ascii;
    class       volScalarField;
    location    "120";
    object      epsilon;
}
// * * * * * * * * * * * * * * * * * * * * * * * * * * * * * * * * * * * * * //

dimensions      [0 2 -3 0 0 0 0];

internalField   nonuniform List<scalar> 
459
(
0.00109568
0.00158453
0.00192411
0.00130373
0.000596333
0.000385371
0.000258648
0.00018366
0.000148053
0.000119874
9.94582e-05
8.5257e-05
7.45232e-05
6.62361e-05
6.01522e-05
3.45228e-05
5.35641e-05
5.42965e-05
3.69584e-05
2.44217e-05
1.561e-05
9.54976e-06
5.01107e-06
3.68098e-06
3.4096e-06
3.29894e-06
3.16585e-06
3.11137e-06
3.17793e-06
3.65235e-06
1.19187e-05
3.14594e-05
3.53498e-05
2.71018e-05
0.00108609
0.00288377
0.00379326
0.00427174
0.00362279
0.00266288
0.00162979
0.000620445
0.000209454
0.000109456
7.23293e-05
6.22982e-05
6.13306e-05
6.12287e-05
5.88031e-05
6.68206e-05
2.88157e-05
7.2004e-05
9.55593e-05
6.83421e-05
4.50411e-05
3.31721e-05
2.0513e-05
1.01543e-05
5.27117e-06
4.01869e-06
3.59036e-06
3.1125e-06
2.68965e-06
2.58377e-06
3.62961e-06
9.1265e-06
3.96955e-05
7.56447e-05
9.50088e-05
6.03671e-05
0.00407582
0.00537987
0.00488219
0.00426233
0.00371894
0.0031096
0.00244778
0.00182984
0.000797464
0.000213906
9.57713e-05
7.07475e-05
6.93613e-05
7.39715e-05
7.87883e-05
8.39779e-05
8.74241e-05
0.000181925
0.000195852
9.233e-05
7.23811e-05
6.88322e-05
7.04711e-05
1.29841e-05
7.16875e-06
5.0817e-06
3.98164e-06
3.28599e-06
2.78498e-06
2.84207e-06
7.34553e-06
3.06625e-05
0.000136156
0.000178735
0.000172616
7.10322e-05
0.0122772
0.0105678
0.0076247
0.00553831
0.00413422
0.00323384
0.00258024
0.00205398
0.00131383
0.000427466
0.000146742
8.88294e-05
8.01556e-05
8.43235e-05
9.49781e-05
0.000116459
0.000160167
0.000238128
0.000156217
7.35059e-05
6.2221e-05
6.80247e-05
8.14507e-05
0.000105209
0.00014813
0.000168287
0.000197871
0.000237925
0.000290118
0.000358119
0.000443516
0.000474023
0.000457571
0.000313545
0.000259963
0.000310881
0.000278487
0.015174
0.0141046
0.00830015
0.00514374
0.00364778
0.00286189
0.00235633
0.001976
0.00139557
0.000537376
0.000196972
0.000109318
9.19629e-05
9.06095e-05
9.1019e-05
9.02515e-05
8.86704e-05
8.28827e-05
6.33438e-05
5.53428e-05
5.53615e-05
6.046e-05
6.87851e-05
8.00974e-05
9.44118e-05
0.00011331
0.000141795
0.000182485
0.000236483
0.000301904
0.00037551
0.000418435
0.000420368
0.000368512
0.000293394
0.000262603
0.000258188
0.000345703
0.000236487
0.000315373
0.017631
0.0173184
0.00771043
0.00388401
0.00273876
0.00227539
0.00198442
0.00176476
0.00128749
0.000549079
0.000215425
0.00012501
0.000109361
0.000112416
0.00011652
0.000115852
0.000108914
9.76913e-05
8.54887e-05
7.63403e-05
7.1618e-05
7.16172e-05
7.53836e-05
8.26408e-05
9.48698e-05
0.000116267
0.000152517
0.000208229
0.000284039
0.000372903
0.000461465
0.000532327
0.000575213
0.000575737
0.000487627
0.000385062
0.000335907
0.000326324
0.000330377
0.000415197
0.0205377
0.0205975
0.00699162
0.00245304
0.00196741
0.00178849
0.00164589
0.00151502
0.0011288
0.00051861
0.000218663
0.000136373
0.000126751
0.000136394
0.000146439
0.000150288
0.000145957
0.000135093
0.000121353
0.000108232
9.83027e-05
9.27208e-05
9.11926e-05
9.3762e-05
0.000102989
0.00012553
0.000170836
0.000246778
0.000352457
0.000473845
0.000589815
0.000685664
0.000764295
0.000841889
0.000945009
0.000942245
0.000945046
0.000839338
0.000779653
0.000774473
0.024874
0.0271632
0.0156221
0.00226106
0.00153992
0.00148596
0.00140039
0.00129459
0.000974466
0.000480862
0.000226901
0.000155536
0.000151009
0.000165592
0.000179768
0.000186885
0.000184992
0.000175217
0.000160738
0.000145099
0.00013127
0.000120993
0.000114607
0.000112393
0.000117234
0.00013813
0.000191553
0.000292274
0.000437165
0.000601281
0.000752347
0.000871368
0.000969091
0.00108206
0.00125696
0.00150371
0.00166395
0.00173266
0.00177698
0.000826928
0.0334728
0.0525315
0.0652481
0.00950229
0.00166198
0.00142081
0.00127554
0.00114724
0.000877403
0.000466648
0.000271251
0.000208349
0.000199594
0.000209991
0.000221486
0.000227073
0.000224584
0.000214656
0.000199756
0.000182954
0.000167003
0.00015373
0.000143903
0.000137959
0.000137664
0.000150146
0.000199891
0.000317358
0.000508713
0.000739837
0.000956487
0.0011041
0.00116314
0.00114224
0.0010869
0.00105003
0.00106438
0.00114582
0.00128918
0.00122591
0.157605
0.0431846
0.00339392
0.00161919
0.00129663
0.00112659
0.000848053
0.000539017
0.000383197
0.000317204
0.000293037
0.000286286
0.000283885
0.000279439
0.000270529
0.000257162
0.000240754
0.000223283
0.000206662
0.000192322
0.00018112
0.000173711
0.000171451
0.000178255
0.000204976
0.00027194
0.000406562
0.000640004
0.00102899
0.00151246
0.00211659
0.0028048
0.00335756
0.00343968
0.00304526
0.00252757
0.00182038
0.0014035
0.033836
0.00463888
0.00209903
0.00157008
0.00137339
0.00121141
0.000926599
0.000694768
0.000560326
0.000484542
0.000438464
0.000405767
0.000378804
0.000354234
0.000330883
0.000308683
0.00028803
0.000269427
0.000253347
0.000240209
0.000230409
0.000224456
0.000223294
0.000228871
0.000244939
0.000277253
0.000331686
0.000416803
0.000551932
0.000746184
0.00102885
0.00143706
0.00194406
0.00234821
0.00238403
0.00205266
0.00173053
0.00127551
0.00416753
0.00690774
0.0112521
0.00142913
0.00142684
0.00176887
0.00184549
0.00171454
0.00142377
0.00116411
0.00096397
0.000809783
0.000687904
0.000593728
0.000517949
0.000455458
0.000403236
0.000359363
0.000322507
0.000291659
0.000266003
0.000244879
0.000227776
0.000214367
0.000204621
0.000199045
0.000199045
0.000207041
0.000227562
0.000266701
0.000326263
0.000406231
0.000512112
0.00066865
0.000909035
0.0011848
0.00129492
0.00116023
0.00100178
0.000742956
)
;

boundaryField
{
    floor
    {
        Cmu             0.09;
        kappa           0.41;
        E               9.8;
        type            epsilonWallFunction;
        value           nonuniform List<scalar> 
29
(
6.01522e-05
3.45228e-05
5.35641e-05
5.42965e-05
3.69584e-05
2.44217e-05
1.561e-05
9.54976e-06
5.01107e-06
3.68098e-06
3.4096e-06
3.29894e-06
3.16585e-06
3.11137e-06
3.17793e-06
3.65235e-06
1.19187e-05
3.14594e-05
3.53498e-05
2.71018e-05
2.71018e-05
6.03671e-05
7.10322e-05
0.000278487
6.01522e-05
3.45228e-05
7.2004e-05
0.000181925
0.000238128
)
;
    }
    ceiling
    {
        Cmu             0.09;
        kappa           0.41;
        E               9.8;
        type            epsilonWallFunction;
        value           nonuniform List<scalar> 
43
(
0.00416753
0.00690774
0.0112521
0.00142913
0.00142684
0.00176887
0.00184549
0.00171454
0.00142377
0.00116411
0.00096397
0.000809783
0.000687904
0.000593728
0.000517949
0.000455458
0.000403236
0.000359363
0.000322507
0.000291659
0.000266003
0.000244879
0.000227776
0.000214367
0.000204621
0.000199045
0.000199045
0.000207041
0.000227562
0.000266701
0.000326263
0.000406231
0.000512112
0.00066865
0.000909035
0.0011848
0.00129492
0.00116023
0.00100178
0.000742956
0.0334728
0.0525315
0.033836
)
;
    }
    sWall
    {
        Cmu             0.09;
        kappa           0.41;
        E               9.8;
        type            epsilonWallFunction;
        value           uniform 0.00416753;
    }
    nWall
    {
        Cmu             0.09;
        kappa           0.41;
        E               9.8;
        type            epsilonWallFunction;
        value           nonuniform List<scalar> 6(0.000315373 0.000415197 0.000774473 0.0014035 0.00127551 0.000742956);
    }
    sideWalls
    {
        type            empty;
    }
    glass1
    {
        Cmu             0.09;
        kappa           0.41;
        E               9.8;
        type            epsilonWallFunction;
        value           nonuniform List<scalar> 9(0.00109568 0.00108609 0.00407582 0.0122772 0.015174 0.017631 0.0205377 0.024874 0.0334728);
    }
    glass2
    {
        Cmu             0.09;
        kappa           0.41;
        E               9.8;
        type            epsilonWallFunction;
        value           nonuniform List<scalar> 2(0.000826928 0.00122591);
    }
    sun
    {
        Cmu             0.09;
        kappa           0.41;
        E               9.8;
        type            epsilonWallFunction;
        value           nonuniform List<scalar> 
14
(
0.00109568
0.00158453
0.00192411
0.00130373
0.000596333
0.000385371
0.000258648
0.00018366
0.000148053
0.000119874
9.94582e-05
8.5257e-05
7.45232e-05
6.62361e-05
)
;
    }
    heatsource1
    {
        Cmu             0.09;
        kappa           0.41;
        E               9.8;
        type            epsilonWallFunction;
        value           nonuniform List<scalar> 3(0.000345703 0.000236487 0.000315373);
    }
    heatsource2
    {
        Cmu             0.09;
        kappa           0.41;
        E               9.8;
        type            epsilonWallFunction;
        value           nonuniform List<scalar> 4(6.68206e-05 2.88157e-05 2.88157e-05 8.74241e-05);
    }
    Table_master
    {
        Cmu             0.09;
        kappa           0.41;
        E               9.8;
        type            epsilonWallFunction;
        value           nonuniform List<scalar> 9(1.29841e-05 7.16875e-06 5.0817e-06 3.98164e-06 3.28599e-06 2.78498e-06 2.84207e-06 7.34553e-06 3.06625e-05);
    }
    Table_slave
    {
        Cmu             0.09;
        kappa           0.41;
        E               9.8;
        type            epsilonWallFunction;
        value           nonuniform List<scalar> 9(0.00014813 0.000168287 0.000197871 0.000237925 0.000290118 0.000358119 0.000443516 0.000474023 0.000457571);
    }
    inlet
    {
        type            turbulentMixingLengthDissipationRateInlet;
        mixingLength    0.01;
        phi             phi;
        k               k;
        value           uniform 3.77336e-06;
    }
    outlet
    {
        type            zeroGradient;
    }
}


// ************************************************************************* //
