/*--------------------------------*- C++ -*----------------------------------*\
  =========                 |
  \\      /  F ield         | OpenFOAM: The Open Source CFD Toolbox
   \\    /   O peration     | Website:  https://openfoam.org
    \\  /    A nd           | Version:  6
     \\/     M anipulation  |
\*---------------------------------------------------------------------------*/
FoamFile
{
    version     2.0;
    format      ascii;
    class       volScalarField;
    location    "120";
    object      nut;
}
// * * * * * * * * * * * * * * * * * * * * * * * * * * * * * * * * * * * * * //

dimensions      [0 2 -1 0 0 0 0];

internalField   nonuniform List<scalar> 
459
(
0.00145728
0.00164779
0.0017579
0.00154403
0.0011899
0.00102874
0.00090063
0.000803561
0.000747758
0.000696919
0.000654871
0.000622106
0.000594844
0.000571952
0.000553901
0.000460179
0.000532754
0.000535243
0.000470975
0.000410269
0.00035338
0.000299954
0.000241849
0.000218149
0.000212667
0.000210357
0.000207499
0.000206314
0.000207811
0.000217702
0.00032258
0.000445873
0.00046366
0.000424479
0.00145298
0.002605
0.00342697
0.00425221
0.0042871
0.00395756
0.00360452
0.00315039
0.00267301
0.00272171
0.00278079
0.00261289
0.00231019
0.00190111
0.00133965
0.000573744
0.00043344
0.000588184
0.00112739
0.00124126
0.00122923
0.00104138
0.000803363
0.000528365
0.000420519
0.000446085
0.00046058
0.000423253
0.000377303
0.000351874
0.00038188
0.000496421
0.000812028
0.00123089
0.00141457
0.00055454
0.00225683
0.00293068
0.00321984
0.00347914
0.0038104
0.00402746
0.00412991
0.00417267
0.0037909
0.00336055
0.00352412
0.00338313
0.00291442
0.00232724
0.0016883
0.00110954
0.000627602
0.00080111
0.00203216
0.00173457
0.00141289
0.0011436
0.000934509
0.00033237
0.000272666
0.00024311
0.000224098
0.000210179
0.00019888
0.000200176
0.000274707
0.000442481
0.00124539
0.00170176
0.00136925
0.00058546
0.00326138
0.003922
0.00385873
0.00373704
0.00374384
0.00390647
0.00414644
0.00444315
0.00450375
0.00422544
0.00422795
0.00423795
0.00375203
0.00304799
0.00225977
0.00153816
0.00105363
0.000876452
0.00180578
0.00165789
0.0014989
0.00132709
0.00113992
0.00092821
0.000748226
0.000780734
0.000824044
0.000876265
0.000936132
0.00100416
0.00107817
0.00110223
0.00108921
0.00132179
0.00164741
0.00197773
0.00092291
0.00350013
0.0047741
0.00441473
0.00400562
0.00382443
0.00389616
0.00416511
0.0046055
0.00492489
0.00490153
0.00502621
0.00535255
0.00527512
0.00499053
0.00463157
0.00422076
0.00381786
0.00349397
0.00332034
0.00317179
0.0030634
0.00296714
0.00289893
0.00285616
0.00286079
0.00295829
0.00313162
0.00336351
0.00362142
0.00386242
0.00403899
0.00408032
0.00399015
0.003794
0.00327124
0.00281433
0.00199696
0.000992193
0.000874323
0.000962417
0.00367972
0.00516775
0.00446252
0.00389847
0.00373829
0.00383419
0.00417022
0.00474211
0.00521054
0.00525721
0.00550758
0.00609118
0.00629436
0.00628214
0.00620386
0.00605458
0.00581919
0.00552072
0.00519619
0.00486438
0.00456045
0.00430493
0.00408794
0.00389678
0.00374901
0.00369358
0.00376362
0.00394687
0.00418731
0.00440646
0.00454585
0.00457747
0.00451909
0.00443055
0.00422673
0.00377291
0.00320011
0.0024478
0.00207289
0.00105499
0.00387179
0.0048625
0.00353356
0.00366302
0.00365687
0.00382495
0.00422375
0.00485199
0.00534445
0.00542664
0.0057134
0.00639526
0.00675179
0.00686816
0.00691213
0.0068831
0.00675758
0.00653974
0.00625663
0.00593976
0.00562026
0.00531734
0.00502352
0.00471966
0.0044131
0.00417461
0.00410176
0.00422091
0.00444441
0.00463617
0.00470882
0.00466195
0.00456645
0.00451941
0.00460131
0.00465545
0.00439532
0.00384122
0.00330136
0.00129886
0.00412712
0.00456701
0.00352294
0.00336062
0.00375811
0.00399627
0.0043819
0.0049674
0.00542352
0.00551707
0.00575566
0.00634445
0.00673911
0.00689911
0.00698729
0.00701246
0.00695706
0.0068171
0.00660784
0.00635481
0.00608662
0.00582495
0.00557243
0.00531464
0.00503307
0.00474096
0.00454625
0.00458439
0.00478574
0.00494567
0.00493477
0.0047525
0.00447824
0.00421325
0.00402393
0.00386332
0.00349054
0.00300709
0.00258852
0.00132731
0.00455654
0.00529519
0.00655528
0.00331629
0.00395112
0.00450436
0.00474288
0.00518982
0.0055771
0.00564029
0.00566652
0.0059594
0.006265
0.00641379
0.00648891
0.00651443
0.00648682
0.00640052
0.00625982
0.00607948
0.00588109
0.00568593
0.00550756
0.00535465
0.0052396
0.00516428
0.00505885
0.00504579
0.00524113
0.00543821
0.00543145
0.00517429
0.00470742
0.00411147
0.0034984
0.00296109
0.00254657
0.00226401
0.00208396
0.00151357
0.0106789
0.00544912
0.0036497
0.00521563
0.0053522
0.00560351
0.00583664
0.00565067
0.00547005
0.00545016
0.00550164
0.00550613
0.00548416
0.00544865
0.00540005
0.0053329
0.00524366
0.00513493
0.00501582
0.00489903
0.00479739
0.00472568
0.0047092
0.00479021
0.00500411
0.00532882
0.00570121
0.00602297
0.00620898
0.00644013
0.00672226
0.0069837
0.00698627
0.006535
0.00580856
0.00515988
0.00468674
0.00158322
0.00457336
0.00311191
0.00497126
0.00544631
0.00552845
0.00562043
0.00545755
0.00505072
0.00470497
0.00446792
0.00430083
0.00411682
0.00395179
0.0038185
0.0037169
0.00364109
0.00358353
0.00353788
0.00350088
0.00347316
0.00345879
0.00346584
0.00350977
0.00361923
0.00383552
0.00418106
0.00459235
0.00494802
0.00520104
0.00543304
0.00572234
0.0060652
0.00634589
0.00639852
0.00615272
0.00561995
0.00445742
0.00153351
0.00227538
0.00269289
0.00316862
0.00159256
0.00159167
0.00170983
0.00173411
0.00169198
0.0015903
0.00148707
0.00139645
0.00131766
0.00124796
0.00118822
0.00113537
0.00108776
0.0010445
0.00100516
0.000969543
0.000937573
0.000909211
0.00088445
0.000863335
0.000846029
0.000832997
0.000825366
0.000825391
0.000836351
0.000863186
0.000910186
0.000973592
0.00104763
0.00113205
0.0012376
0.00137099
0.00149723
0.0015419
0.00148629
0.00141515
0.00128081
)
;

boundaryField
{
    floor
    {
        type            nutkWallFunction;
        Cmu             0.09;
        kappa           0.41;
        E               9.8;
        value           nonuniform List<scalar> 
29
(
6.65681e-05
5.46241e-05
6.39079e-05
6.42166e-05
5.59953e-05
4.81099e-05
4.05923e-05
3.33888e-05
2.53623e-05
2.20196e-05
2.12364e-05
2.0905e-05
2.04952e-05
2.03242e-05
2.0535e-05
2.19453e-05
3.65008e-05
5.28019e-05
5.50917e-05
4.99966e-05
4.99965e-05
6.66531e-05
7.0539e-05
0.000111634
6.65681e-05
5.46241e-05
7.08728e-05
9.70255e-05
0.000106059
)
;
    }
    ceiling
    {
        type            nutkWallFunction;
        Cmu             0.09;
        kappa           0.41;
        E               9.8;
        value           nonuniform List<scalar> 
43
(
0.000263224
0.000307687
0.000357488
0.000188509
0.000188413
0.000201563
0.000204256
0.000199591
0.000188271
0.000176695
0.00016646
0.000157499
0.000149523
0.000142647
0.000136532
0.000130995
0.000125941
0.000121325
0.000117129
0.000113348
0.000109982
0.000107035
0.000104513
0.000102442
0.000100878
9.996e-05
9.99607e-05
0.000101273
0.000104484
0.000110081
0.000117578
0.000126256
0.000136058
0.000148205
0.000163424
0.000177703
0.000182742
0.000176515
0.000168504
0.00015324
0.000498967
0.000572343
0.000500553
)
;
    }
    sWall
    {
        type            nutkWallFunction;
        Cmu             0.09;
        kappa           0.41;
        E               9.8;
        value           uniform 0.000263286;
    }
    nWall
    {
        type            nutkWallFunction;
        Cmu             0.09;
        kappa           0.41;
        E               9.8;
        value           nonuniform List<scalar> 6(0.000116281 0.000127144 0.000155293 0.00018743 0.00018187 0.000153252);
    }
    sideWalls
    {
        type            empty;
    }
    glass1
    {
        type            nutkWallFunction;
        Cmu             0.09;
        kappa           0.41;
        E               9.8;
        value           nonuniform List<scalar> 9(0.000173572 0.000173093 0.000261788 0.000367739 0.000392389 0.000410819 0.000430428 0.000456346 0.000499582);
    }
    glass2
    {
        type            nutkWallFunction;
        Cmu             0.09;
        kappa           0.41;
        E               9.8;
        value           nonuniform List<scalar> 2(0.000158622 0.000179693);
    }
    sun
    {
        type            nutkWallFunction;
        Cmu             0.09;
        kappa           0.41;
        E               9.8;
        value           nonuniform List<scalar> 
14
(
0.000173378
0.000194736
0.000206952
0.000183128
0.000142844
0.0001241
0.00010897
9.73293e-05
9.05767e-05
8.43659e-05
7.91859e-05
7.51204e-05
7.17171e-05
6.88439e-05
)
;
    }
    heatsource1
    {
        type            nutkWallFunction;
        Cmu             0.09;
        kappa           0.41;
        E               9.8;
        value           nonuniform List<scalar> 3(0.000119796 0.000105813 0.000116274);
    }
    heatsource2
    {
        type            nutkWallFunction;
        Cmu             0.09;
        kappa           0.41;
        E               9.8;
        value           nonuniform List<scalar> 4(6.90637e-05 5.1153e-05 5.11529e-05 7.57824e-05);
    }
    Table_master
    {
        type            nutkWallFunction;
        Cmu             0.09;
        kappa           0.41;
        E               9.8;
        value           nonuniform List<scalar> 9(3.77918e-05 2.9663e-05 2.55554e-05 2.28804e-05 2.09031e-05 1.92851e-05 1.94779e-05 2.99671e-05 5.23337e-05);
    }
    Table_slave
    {
        type            nutkWallFunction;
        Cmu             0.09;
        kappa           0.41;
        E               9.8;
        value           nonuniform List<scalar> 9(9.06032e-05 9.45475e-05 9.97722e-05 0.00010603 0.000113153 0.000121186 0.000129866 0.000132678 0.000131173);
    }
    inlet
    {
        type            calculated;
        value           uniform 3.3541e-05;
    }
    outlet
    {
        type            calculated;
        value           nonuniform List<scalar> 2(0.00227538 0.00269289);
    }
}


// ************************************************************************* //
