/*--------------------------------*- C++ -*----------------------------------*\
  =========                 |
  \\      /  F ield         | OpenFOAM: The Open Source CFD Toolbox
   \\    /   O peration     | Website:  https://openfoam.org
    \\  /    A nd           | Version:  6
     \\/     M anipulation  |
\*---------------------------------------------------------------------------*/
FoamFile
{
    version     2.0;
    format      ascii;
    class       surfaceScalarField;
    location    "120";
    object      phi;
}
// * * * * * * * * * * * * * * * * * * * * * * * * * * * * * * * * * * * * * //

dimensions      [1 0 -1 0 0 0 0];

internalField   nonuniform List<scalar> 
852
(
-0.00357886
0.00362737
-0.00288251
-0.000696451
-0.00147554
-0.00140728
-0.00104357
-0.00043255
-0.00162254
0.000578776
-0.00242964
0.000807067
-0.0029141
0.000484479
-0.00285376
-6.02949e-05
-0.00251749
-0.000336235
-0.00208412
-0.00043333
-0.00164903
-0.000435047
-0.00124685
-0.000402133
-0.000873606
-0.000373188
-0.000478063
-0.000395486
-0.000474095
-0.000502858
0.000507503
-0.000251167
-0.000251632
0.000179087
-0.000430202
0.000491115
-0.000311984
0.000614569
-0.000123413
0.00049085
0.000123761
0.0001728
0.000318098
-3.80276e-05
0.000210875
-9.57751e-05
5.77644e-05
-6.68267e-05
-2.89393e-05
3.66477e-05
-0.000103476
0.000207261
-0.000170625
0.000408458
-0.000201211
0.00054589
-0.000137446
0.000583645
-3.77538e-05
0.000643021
-5.93656e-05
0.00079942
-0.000156364
0.000798172
1.30241e-06
0.00080333
0.00015025
0.00361837
0.00214538
-0.00269131
0.0031233
-0.00238494
0.00299225
-0.000301285
0.00218633
0.00138489
0.000840619
0.00215292
-0.000719851
0.00204484
-0.00188335
0.00110319
-0.00211731
-0.000102243
-0.00192702
-0.000623588
-0.00168134
-0.000680685
-0.00140043
-0.000682991
-0.00106515
-0.000708413
-0.000690475
-0.00077009
-0.000343518
-0.000820979
0.000277578
-0.000621068
0.000277592
0.000921186
-0.000401992
0.000750865
-8.12334e-05
0.000366658
-4.59203e-05
0.000261517
-0.000206769
0.000392245
-0.000254054
0.000411223
0.000104862
0.000272586
0.00045682
0.000265174
0.000218384
0.000273686
4.93258e-05
0.00028616
-4.13625e-05
0.000295139
-0.00011242
0.000309765
-0.000185229
0.00035299
-0.000244428
0.000378791
-0.000163237
0.000321005
2.00403e-05
0.000386577
-0.000124965
0.000579903
-0.000349645
0.000504967
7.63051e-05
0.00132116
0.00618968
-0.00237297
0.00805928
-0.00456056
0.00795634
-0.00228166
0.00702708
0.000628319
0.0056602
0.00275208
0.00397519
0.00383821
0.00212448
0.00389574
0.000180812
0.00304699
-0.00117586
0.00125432
-0.00158753
-0.000211917
-0.00167017
-0.000598005
-0.00164166
-0.000711445
-0.00154498
-0.000805028
-0.0014071
-0.000907886
-0.00125733
-0.000970667
-0.000976779
-0.000901518
-0.000699088
-0.000584225
0.000197753
-0.000851685
0.000186316
-0.000894978
-2.5207e-06
-0.000879555
-0.000222063
-0.00073379
-0.000399671
-4.64618e-05
-0.000582301
0.000410613
0.000629283
0.000678893
0.000637793
0.000525609
0.000340589
9.63412e-05
-6.67184e-05
-4.64445e-05
0.000116078
-0.000287432
-0.000555815
0.000322324
-0.00103117
0.000551715
0.000310498
0.00753418
-0.00966492
0.00900706
-0.00603311
0.00829773
-0.00157199
0.00720229
0.00172409
0.00589285
0.00406184
0.00435058
0.00538079
0.002692
0.00555459
0.00108475
0.00465443
-0.000363678
0.00270276
-0.00120417
0.000628552
-0.00162761
-0.000174526
-0.00186125
-0.000477752
-0.00203096
-0.000635237
-0.0021974
-0.000741359
-0.00238512
-0.000782848
-0.00257404
-0.000712491
-0.00286979
-0.000403215
-0.00261019
-0.000242857
-0.00237174
-4.0578e-05
-0.0022434
5.8092e-05
-0.00220239
-4.34071e-05
-0.00222776
-0.000196569
-0.00229211
-0.000335202
-0.00249547
-0.000378823
-0.0022132
-0.000282308
-0.00191889
-0.000294346
-0.00155288
-0.000366053
-0.00108055
-0.000472378
-0.000475738
-0.000604862
0.000258562
-0.000734349
0.00105792
-0.000799405
0.00177307
-0.000715202
0.00226509
-0.000492064
0.0020478
-7.00413e-05
0.00174772
0.000622486
0.00118558
0.00111392
0.0015157
0.00393308
-0.0132947
0.00467982
-0.00677953
0.00446726
-0.00135911
0.00414172
0.00204994
0.00356794
0.00463594
0.00272784
0.00622119
0.00173129
0.00655141
0.000722556
0.00566336
-0.000184794
0.00361012
-0.000954881
0.00139862
-0.00145508
0.000325701
-0.00176774
-0.000165041
-0.00199155
-0.00041135
-0.00218142
-0.0005514
-0.00235369
-0.000610478
-0.00249761
-0.000568462
-0.0024919
-0.000408806
-0.00247729
-0.000257347
-0.00237026
-0.000147482
-0.00221709
-9.4963e-05
-0.0021175
-0.000142882
-0.00207624
-0.000237714
-0.00207739
-0.000333949
-0.00206949
-0.000386623
-0.00193313
-0.000418565
-0.00172747
-0.000499902
-0.00145488
-0.00063855
-0.00110224
-0.000824924
-0.000667813
-0.0010392
-0.000157676
-0.00124439
0.000403037
-0.00136002
0.000980773
-0.00129284
0.0014891
-0.0010003
0.00181294
-0.000393785
0.00196779
0.000467714
0.00192598
0.0011558
0.00213557
0.00130616
0.000895426
0.00124
-0.000551263
0.00144658
-0.000496105
0.000943793
-0.0138729
0.00132254
-0.00715799
0.0017519
-0.00178817
0.00136562
0.00243652
0.00107685
0.00492501
0.000776311
0.00652203
0.000416162
0.00691183
2.98372e-05
0.00604986
-0.00035481
0.00399473
-0.000825178
0.00186895
-0.00119271
0.00069325
-0.00144968
9.19915e-05
-0.00162991
-0.000231052
-0.00177253
-0.000408693
-0.0018924
-0.000490516
-0.0019764
-0.000484369
-0.00197861
-0.000406495
-0.00193062
-0.000305229
-0.00185009
-0.000227907
-0.00175391
-0.000191033
-0.00168599
-0.000210704
-0.00165732
-0.000266282
-0.0016582
-0.000332977
-0.00165038
-0.000394343
-0.00160117
-0.000467693
-0.00151246
-0.00058853
-0.00138244
-0.000768486
-0.0012068
-0.00100049
-0.000987863
-0.00125806
-0.00073616
-0.00149601
-0.000446699
-0.0016494
-8.59186e-05
-0.00165353
0.000350964
-0.00143709
0.000888898
-0.000931633
0.00144449
-8.78019e-05
0.00190239
0.000697985
0.0023388
0.000869821
0.00267107
0.000907813
0.0026851
0.00143264
0.0022527
-0.000556787
-0.012889
-0.000354783
-0.00735971
-0.000440215
-0.00170247
-0.00122214
0.00321873
-0.00114807
0.00485123
-0.000882568
0.00625682
-0.000661224
0.00669072
-0.00051827
0.00590702
-0.000518857
0.00399526
-0.000678908
0.00202896
-0.000854159
0.000868517
-0.00100312
0.000241011
-0.00111886
-0.000115242
-0.00120988
-0.000317589
-0.0012822
-0.000418111
-0.00132647
-0.000440012
-0.00132751
-0.000405354
-0.00128745
-0.000345196
-0.0012253
-0.000289959
-0.00115854
-0.000257697
-0.00111156
-0.000257586
-0.00109572
-0.000282034
-0.00110909
-0.000319522
-0.00113811
-0.000365235
-0.00117361
-0.000432118
-0.00121709
-0.000544986
-0.0012675
-0.000718013
-0.00132235
-0.000945588
-0.00137943
-0.00120091
-0.00143239
-0.00144297
-0.00146042
-0.00162127
-0.00143009
-0.00168376
-0.00129041
-0.00157668
-0.000962788
-0.00125915
-0.00028844
-0.00076205
0.000592042
-0.000182369
0.00152774
-6.57407e-05
0.00250983
-7.41235e-05
0.00259218
0.00135042
0.0049091
-0.00283908
-0.00956516
-0.00416812
-0.00603039
-0.00381154
-0.00205877
-0.00366736
0.00307484
-0.00290654
0.00409069
-0.00205765
0.0054082
-0.00132465
0.00595792
-0.000770535
0.00535298
-0.000453097
0.00367775
-0.000343409
0.00191922
-0.000351579
0.000876701
-0.000398705
0.000288191
-0.000454004
-5.98683e-05
-0.000506392
-0.000265115
-0.000552076
-0.000372335
-0.000582069
-0.000409924
-0.0005872
-0.000400126
-0.000566158
-0.000366141
-0.000527893
-0.000328129
-0.000485594
-0.000299902
-0.000455039
-0.00028805
-0.000446831
-0.000290155
-0.000465689
-0.000300582
-0.000514429
-0.000316419
-0.000602851
-0.000343628
-0.000749569
-0.000398212
-0.000969301
-0.000498235
-0.00126687
-0.000647968
-0.00163567
-0.000832049
-0.00205884
-0.00101972
-0.00250625
-0.00117375
-0.00293297
-0.00125693
-0.00327693
-0.0012326
-0.00347903
-0.00105692
-0.003544
-0.00069693
-0.00353265
-0.000193526
-0.00380559
0.000207425
-0.00425655
0.000377043
-0.00361135
0.000705407
0.00163635
-0.00903344
-0.0150636
-0.00990262
-0.00721947
-0.00600926
-0.000818241
-0.004076
0.0021577
-0.00267366
0.00400609
-0.00152498
0.00480941
-0.000647838
0.00447589
-1.59921e-05
0.00304584
0.000295229
0.00160797
0.000408224
0.000763726
0.000430969
0.000265503
0.000410741
-3.95591e-05
0.000370408
-0.000224686
0.000323479
-0.000325302
0.000281242
-0.00036758
0.000253126
-0.000371903
0.000242561
-0.000355471
0.000246352
-0.000331818
0.000256634
-0.000310086
0.000263441
-0.000294765
0.000258747
-0.000285373
0.000236963
-0.000278716
0.000191674
-0.000271055
0.000107592
-0.000259478
-4.85021e-05
-0.000242065
-0.000321012
-0.000225686
-0.000744997
-0.000223945
-0.00133027
-0.000246715
-0.00206655
-0.000283359
-0.00293413
-0.000306056
-0.00389971
-0.000291213
-0.00490558
-0.000226576
-0.00587216
-9.01702e-05
-0.006726
0.000157099
-0.0074658
0.000546477
-0.00827131
0.00101316
-0.0091011
0.00120707
-0.00755232
-0.000843112
-0.00556118
-0.00798104
0.00125763
-0.00594504
-0.002854
-0.00414111
0.000354024
-0.00260013
0.00246533
-0.00123939
0.00344884
-7.11257e-05
0.00330769
0.000814088
0.0021606
0.00125266
0.00116942
0.0014526
0.000563835
0.00151843
0.000199743
0.00150593
-2.69594e-05
0.00145025
-0.000168889
0.0013752
-0.000250135
0.00129677
-0.000289017
0.00122589
-0.000300894
0.00116802
-0.000297482
0.00112338
-0.000287063
0.00108826
-0.000274857
0.00105695
-0.000263348
0.00102416
-0.00025249
0.000986069
-0.000240533
0.000939782
-0.000224687
0.00088168
-0.000201304
0.000805734
-0.000166057
0.000697421
-0.000117323
0.000533264
-5.97495e-05
0.000294778
-8.19226e-06
-1.56961e-05
2.71634e-05
-0.000374155
5.24849e-05
-0.000736047
7.07939e-05
-0.00106227
9.97908e-05
-0.00135771
0.000205432
-0.001645
0.000444583
-0.00184651
0.000748182
-0.00164022
0.000807079
-0.00035446
-7.84633e-05
0.000782964
-0.00198027
-0.00470125
-0.00185157
0.00310978
-0.00334557
-0.00135976
-0.00313353
0.000142218
-0.00200944
0.00134146
-0.000541229
0.0019808
0.000914882
0.00185167
0.00193894
0.00113661
0.00248652
0.00062192
0.00274364
0.000306811
0.00282882
0.000114681
0.00280998
-7.98607e-06
0.00273118
-8.99446e-05
0.00262023
-0.00013903
0.00249656
-0.00016519
0.00237294
-0.00017712
0.00225664
-0.000181027
0.00215049
-0.000180774
0.0020542
-0.00017843
0.00196574
-0.000174754
0.00188289
-0.000169524
0.00180438
-0.000161926
0.00173056
-0.000150769
0.00166374
-0.000134403
0.00160819
-0.000110434
0.00156749
-7.65595e-05
0.00154133
-3.35351e-05
0.00152073
1.24421e-05
0.00149363
5.43098e-05
0.00144714
9.90088e-05
0.00138087
0.000137109
0.00131044
0.000170286
0.00128964
0.000226327
0.00140093
0.000333442
0.00171017
0.000439142
0.00218286
0.000334601
0.00231277
-0.000208125
0.00153394
-0.00120114
-0.00308009
-0.00342043
-0.00482662
-0.00171603
-0.00307728
-0.00293698
-0.00159744
0.000381876
0.00223379
0.00337184
0.00399608
0.00430588
0.00442413
0.00442025
0.00433495
0.00420114
0.00404176
0.00387106
0.00369709
0.00352403
0.00335395
0.0031882
0.00302829
0.00287657
0.00273656
0.00261342
0.00251469
0.0024502
0.002429
0.0024539
0.00252065
0.00263198
0.00278121
0.00296337
0.00320124
0.00354587
0.00399602
0.00434186
0.00414569
0.00295737
)
;

boundaryField
{
    floor
    {
        type            calculated;
        value           nonuniform List<scalar> 
29
(
0
0
0
0
0
0
0
0
0
0
0
0
0
0
0
0
0
0
0
0
-5.09865e-06
-1.28019e-05
-2.04529e-05
-1.96198e-05
-3.90929e-06
-4.58459e-06
-1.16157e-05
-1.54413e-05
-1.66172e-05
)
;
    }
    ceiling
    {
        type            calculated;
        value           nonuniform List<scalar> 
43
(
-1.23981e-07
-6.71571e-07
-5.84697e-07
1.71585e-06
2.15325e-06
2.14949e-06
1.67247e-06
-8.26694e-08
-1.29054e-06
-2.15476e-06
-2.82964e-06
-3.40164e-06
-3.92505e-06
-4.46334e-06
-5.0238e-06
-5.61066e-06
-6.22475e-06
-6.86285e-06
-7.51772e-06
-8.17883e-06
-8.8338e-06
-9.47007e-06
-1.00763e-05
-1.0643e-05
-1.11612e-05
-1.16193e-05
-1.19979e-05
-1.22701e-05
-1.24045e-05
-1.239e-05
-1.22738e-05
-1.20977e-05
-1.18615e-05
-1.15375e-05
-1.11577e-05
-1.09083e-05
-1.10567e-05
-1.16918e-05
-1.25008e-05
-1.35066e-05
1.48394e-06
7.4183e-08
-3.40781e-07
)
;
    }
    sWall
    {
        type            calculated;
        value           uniform -0.000174245;
    }
    nWall
    {
        type            calculated;
        value           nonuniform List<scalar> 6(-5.52408e-05 -6.36088e-05 -6.40938e-05 -7.66486e-05 -8.68882e-05 -0.000108853);
    }
    sideWalls
    {
        type            empty;
        value           nonuniform 0();
    }
    glass1
    {
        type            calculated;
        value           nonuniform List<scalar> 9(-4.84683e-05 -0.00014109 -0.000197988 -0.000241956 -0.000303013 -0.000365372 -0.000426853 -0.000484506 -0.000532945);
    }
    glass2
    {
        type            calculated;
        value           nonuniform List<scalar> 2(-0.000338489 -0.000354517);
    }
    sun
    {
        type            calculated;
        value           uniform 0;
    }
    heatsource1
    {
        type            calculated;
        value           nonuniform List<scalar> 3(2.05328e-07 2.05652e-07 2.06006e-07);
    }
    heatsource2
    {
        type            calculated;
        value           nonuniform List<scalar> 4(5.15268e-08 5.15966e-08 0 0);
    }
    Table_master
    {
        type            calculated;
        value           nonuniform List<scalar> 9(-1.54843e-07 -1.54873e-07 -1.54917e-07 -1.54964e-07 -1.55017e-07 -1.55084e-07 -1.55159e-07 -1.55175e-07 -1.55078e-07);
    }
    Table_slave
    {
        type            calculated;
        value           nonuniform List<scalar> 9(1.53773e-07 1.5386e-07 1.53944e-07 1.5405e-07 1.54192e-07 1.54293e-07 1.5418e-07 1.53948e-07 1.53793e-07);
    }
    inlet
    {
        type            calculated;
        value           uniform -0.00049577;
    }
    outlet
    {
        type            calculated;
        value           nonuniform List<scalar> 2(0.00359501 0.00140709);
    }
}


// ************************************************************************* //
