/*--------------------------------*- C++ -*----------------------------------*\
  =========                 |
  \\      /  F ield         | OpenFOAM: The Open Source CFD Toolbox
   \\    /   O peration     | Website:  https://openfoam.org
    \\  /    A nd           | Version:  6
     \\/     M anipulation  |
\*---------------------------------------------------------------------------*/
FoamFile
{
    version     2.0;
    format      ascii;
    class       volScalarField;
    location    "120";
    object      T;
}
// * * * * * * * * * * * * * * * * * * * * * * * * * * * * * * * * * * * * * //

dimensions      [0 0 0 1 0 0 0];

internalField   nonuniform List<scalar> 
459
(
304.26
304.067
303.939
303.463
302.753
302.441
302.301
302.237
302.211
302.19
302.174
302.164
302.156
302.151
302.154
302.043
302.026
302.024
302.03
302.031
302.027
302.014
301.969
301.918
301.882
301.844
301.812
301.797
301.801
301.813
301.838
301.855
301.855
301.867
304.578
304.407
304.328
304.214
303.887
303.453
302.935
302.485
302.306
302.239
302.202
302.183
302.168
302.155
302.138
302.113
302.064
302.055
302.038
302.028
302.034
302.035
302.008
301.973
301.912
301.849
301.799
301.76
301.731
301.714
301.72
301.752
301.876
301.893
301.871
301.869
304.706
304.448
304.347
304.312
304.199
303.948
303.559
303.121
302.58
302.319
302.244
302.217
302.201
302.185
302.166
302.144
302.12
302.081
302.073
302.083
302.103
302.112
302.106
301.934
301.867
301.811
301.766
301.731
301.703
301.69
301.722
301.817
302.042
301.949
301.902
301.886
304.391
304.14
304.077
304.083
304.099
304.015
303.769
303.384
302.863
302.423
302.293
302.259
302.245
302.23
302.213
302.193
302.176
302.169
302.161
302.174
302.198
302.215
302.227
302.235
302.242
302.246
302.251
302.255
302.257
302.258
302.255
302.248
302.239
302.215
302.155
302.083
302.054
304.23
303.832
303.783
303.859
303.963
303.974
303.81
303.464
302.951
302.49
302.348
302.311
302.302
302.294
302.284
302.272
302.26
302.253
302.252
302.258
302.269
302.279
302.285
302.289
302.292
302.294
302.295
302.295
302.293
302.288
302.282
302.273
302.26
302.24
302.204
302.152
302.108
302.102
302.118
302.19
304.098
303.588
303.602
303.734
303.889
303.935
303.792
303.451
302.932
302.532
302.4
302.367
302.362
302.36
302.354
302.345
302.335
302.328
302.324
302.325
302.328
302.333
302.336
302.338
302.338
302.336
302.333
302.327
302.319
302.31
302.301
302.291
302.276
302.254
302.222
302.182
302.146
302.127
302.119
302.138
303.957
303.482
303.582
303.746
303.864
303.884
303.729
303.385
302.91
302.571
302.453
302.427
302.425
302.428
302.427
302.42
302.411
302.402
302.395
302.391
302.39
302.39
302.39
302.389
302.387
302.381
302.371
302.357
302.342
302.329
302.318
302.308
302.294
302.274
302.245
302.201
302.174
302.16
302.148
302.157
303.802
303.442
303.571
303.761
303.821
303.802
303.639
303.315
302.903
302.621
302.517
302.494
302.495
302.501
302.503
302.499
302.49
302.48
302.471
302.463
302.457
302.453
302.45
302.446
302.441
302.431
302.415
302.393
302.37
302.353
302.341
302.333
302.325
302.312
302.295
302.278
302.279
302.293
302.309
302.385
303.641
303.332
303.321
303.69
303.741
303.697
303.543
303.263
302.925
302.691
302.608
302.584
302.581
302.585
302.586
302.582
302.574
302.563
302.552
302.541
302.532
302.524
302.517
302.509
302.501
302.49
302.471
302.442
302.412
302.388
302.374
302.371
302.378
302.39
302.406
302.423
302.442
302.464
302.488
302.539
302.841
303.486
303.612
303.585
303.463
303.243
302.963
302.809
302.74
302.71
302.697
302.689
302.683
302.675
302.665
302.652
302.639
302.626
302.614
302.602
302.591
302.58
302.569
302.556
302.54
302.518
302.49
302.459
302.427
302.404
302.391
302.383
302.382
302.388
302.395
302.398
302.373
302.399
303.129
303.415
303.479
303.484
303.407
303.234
303.05
302.949
302.894
302.861
302.838
302.82
302.803
302.787
302.771
302.754
302.737
302.72
302.703
302.688
302.673
302.658
302.644
302.629
302.613
302.594
302.572
302.547
302.52
302.492
302.466
302.44
302.415
302.398
302.388
302.379
302.377
302.402
303.244
303.19
303.2
303.365
303.396
303.407
303.373
303.238
303.15
303.094
303.055
303.026
303.002
302.979
302.956
302.932
302.909
302.885
302.862
302.839
302.817
302.796
302.776
302.757
302.74
302.723
302.707
302.691
302.673
302.653
302.63
302.607
302.584
302.559
302.53
302.498
302.47
302.447
302.423
302.422
)
;

boundaryField
{
    floor
    {
        type            wallHeatTransfer;
        Tinf            uniform 305.2;
        alphaWall       uniform 0.24;
        value           nonuniform List<scalar> 
29
(
302.673
302.651
302.581
302.578
302.632
302.689
302.75
302.815
302.888
302.905
302.893
302.873
302.858
302.85
302.849
302.833
302.647
302.513
302.496
302.544
302.544
302.436
302.43
302.426
302.673
302.651
302.569
302.491
302.542
)
;
    }
    ceiling
    {
        type            wallHeatTransfer;
        Tinf            uniform 303.2;
        alphaWall       uniform 0.24;
        value           nonuniform List<scalar> 
43
(
303.241
303.191
303.2
303.352
303.381
303.392
303.36
303.235
303.154
303.102
303.068
303.042
303.021
303
302.98
302.96
302.94
302.92
302.9
302.881
302.862
302.845
302.829
302.813
302.799
302.785
302.771
302.756
302.739
302.718
302.695
302.671
302.647
302.62
302.589
302.555
302.528
302.509
302.489
302.494
303.627
303.328
303.131
)
;
    }
    sWall
    {
        type            wallHeatTransfer;
        Tinf            uniform 315.2;
        alphaWall       uniform 0.36;
        value           uniform 304.268;
    }
    nWall
    {
        type            wallHeatTransfer;
        Tinf            uniform 307.2;
        alphaWall       uniform 0.36;
        value           nonuniform List<scalar> 6(303.007 302.912 302.819 302.942 302.959 303.056);
    }
    sideWalls
    {
        type            empty;
    }
    glass1
    {
        type            wallHeatTransfer;
        Tinf            uniform 315.2;
        alphaWall       uniform 4.3;
        value           nonuniform List<scalar> 9(311.108 311.235 310.309 309.292 309.034 308.839 308.635 308.388 308.049);
    }
    glass2
    {
        type            wallHeatTransfer;
        Tinf            uniform 307.2;
        alphaWall       uniform 4.3;
        value           nonuniform List<scalar> 2(305.471 305.404);
    }
    sun
    {
        type            wallHeatTransfer;
        Tinf            uniform 305.2;
        alphaWall       uniform 0.24;
        value           nonuniform List<scalar> 
14
(
304.339
304.153
304.03
303.602
302.993
302.743
302.651
302.626
302.624
302.627
302.634
302.641
302.65
302.659
)
;
    }
    heatsource1
    {
        type            fixedGradient;
        gradient        uniform 0;
    }
    heatsource2
    {
        type            fixedGradient;
        gradient        uniform 0;
    }
    Table_master
    {
        type            zeroGradient;
    }
    Table_slave
    {
        type            zeroGradient;
    }
    inlet
    {
        type            fixedValue;
        value           uniform 290.15;
    }
    outlet
    {
        type            zeroGradient;
    }
}


// ************************************************************************* //
