/*--------------------------------*- C++ -*----------------------------------*\
  =========                 |
  \\      /  F ield         | OpenFOAM: The Open Source CFD Toolbox
   \\    /   O peration     | Website:  https://openfoam.org
    \\  /    A nd           | Version:  6
     \\/     M anipulation  |
\*---------------------------------------------------------------------------*/
FoamFile
{
    version     2.0;
    format      ascii;
    class       volVectorField;
    location    "120";
    object      U;
}
// * * * * * * * * * * * * * * * * * * * * * * * * * * * * * * * * * * * * * //

dimensions      [0 1 -1 0 0 0 0];

internalField   nonuniform List<vector> 
459
(
(-0.0465223 0.0509512 0)
(-0.141741 -0.0408793 0)
(-0.0731484 -0.0446265 0)
(-0.0570321 0.0143664 0)
(-0.0608071 0.0357517 0)
(-0.0929849 0.0167164 0)
(-0.120547 -0.00110296 0)
(-0.126495 -0.0103378 0)
(-0.115432 -0.0148783 0)
(-0.098777 -0.0163187 0)
(-0.080266 -0.015467 0)
(-0.0615637 -0.0140633 0)
(-0.0427074 -0.0134177 0)
(-0.0302057 -0.0150973 0)
(-0.0574362 -0.0183964 0)
(0.0312801 0.00926974 0)
(-0.0195268 -0.0127935 0)
(-0.00387698 -0.0162564 0)
(0.0121602 -0.0127181 0)
(0.0233216 -0.00766847 0)
(0.0263459 -0.000356343 0)
(0.0179806 0.00642551 0)
(0.00135633 0.00474949 0)
(-0.00444993 0.000631895 0)
(-0.00392212 -0.00111358 0)
(-0.000674952 -0.00277226 0)
(0.00560316 -0.00469016 0)
(0.0132183 -0.00566386 0)
(0.0202763 -0.00401259 0)
(0.0240619 -0.00121041 0)
(0.0271244 -0.00261095 0)
(0.0300221 -0.0101427 0)
(0.0399279 -0.00637677 0)
(-0.0128425 0.0169524 0)
(0.216581 0.216317 0)
(0.0747331 -0.0928853 0)
(0.121849 -0.08617 0)
(0.127951 -0.0166013 0)
(0.113186 0.0440215 0)
(0.07161 0.069496 0)
(0.00244367 0.0547585 0)
(-0.0671313 0.00693607 0)
(-0.0913886 -0.0194623 0)
(-0.087332 -0.0267089 0)
(-0.0779127 -0.0267583 0)
(-0.0664479 -0.0256364 0)
(-0.0527885 -0.0256025 0)
(-0.0378879 -0.0278833 0)
(-0.0251662 -0.0322524 0)
(-0.00788888 -0.0335023 0)
(0.0189677 -0.000393319 0)
(0.118825 0.00398942 0)
(0.0399468 -0.00236659 0)
(0.0153846 -0.00761715 0)
(0.00789499 -0.00947176 0)
(0.00992868 -0.00683952 0)
(0.0195488 0.00693804 0)
(0.0182733 0.0161451 0)
(0.0102249 0.00977907 0)
(0.0105582 0.00334371 0)
(0.0120653 -0.000539315 0)
(0.0127624 -0.00400609 0)
(0.0133638 -0.00740017 0)
(0.0142652 -0.00975987 0)
(0.0146848 -0.00764553 0)
(0.0113218 -0.0030893 0)
(0.0213981 -0.00635016 0)
(0.0201529 -0.0141272 0)
(0.0338455 -0.00507137 0)
(-0.066227 0.0418576 0)
(0.533631 0.126328 0)
(0.31853 -0.0799109 0)
(0.320258 -0.0664013 0)
(0.330472 0.018587 0)
(0.284052 0.0919124 0)
(0.211961 0.130492 0)
(0.130619 0.131365 0)
(0.0502347 0.0971928 0)
(-0.034364 0.0203653 0)
(-0.06558 -0.0223987 0)
(-0.0711685 -0.0300142 0)
(-0.0716198 -0.0322865 0)
(-0.0685165 -0.0351012 0)
(-0.0632701 -0.0392186 0)
(-0.0573292 -0.0425242 0)
(-0.0516063 -0.0405687 0)
(-0.0486322 -0.0322273 0)
(0.0829513 -0.00634433 0)
(-0.0447916 0.00347333 0)
(-0.0388379 0.00147582 0)
(-0.0384926 -0.00778803 0)
(-0.0360966 -0.0145753 0)
(-0.033928 -0.0159518 0)
(0.0252653 0.0163669 0)
(0.0232861 0.00611848 0)
(0.0276257 -0.00153566 0)
(0.0287606 -0.00622687 0)
(0.0256765 -0.00927634 0)
(0.0195907 -0.0118355 0)
(0.0107096 -0.0129798 0)
(-0.00558003 -0.00719152 0)
(-0.0210029 0.00234072 0)
(0.0324766 -0.00164433 0)
(0.000914852 0.0107889 0)
(-0.0436187 0.0241296 0)
(-0.150316 0.0386276 0)
(0.723466 -0.361053 0)
(0.303998 -0.283182 0)
(0.333321 -0.137971 0)
(0.348598 0.00875817 0)
(0.297421 0.126394 0)
(0.225503 0.191342 0)
(0.151563 0.203178 0)
(0.0795146 0.169085 0)
(0.00719016 0.0917398 0)
(-0.0419274 0.00931848 0)
(-0.0633221 -0.0183151 0)
(-0.0756068 -0.0267614 0)
(-0.0835149 -0.0317176 0)
(-0.0902819 -0.0351584 0)
(-0.0980265 -0.034688 0)
(-0.108417 -0.0252794 0)
(-0.12014 -0.000498137 0)
(-0.118682 0.0423734 0)
(-0.100265 0.00689935 0)
(-0.100709 0.00509401 0)
(-0.0953354 -0.00271997 0)
(-0.094621 -0.0107655 0)
(-0.098301 -0.0170952 0)
(-0.104195 -0.0194567 0)
(-0.102059 -0.01246 0)
(-0.0894427 -0.0126103 0)
(-0.0748629 -0.015356 0)
(-0.0563702 -0.0193859 0)
(-0.0337194 -0.0245793 0)
(-0.00689535 -0.0304028 0)
(0.0305172 -0.0333814 0)
(0.0603497 -0.029552 0)
(0.0867064 -0.0225379 0)
(0.0985728 -0.00858017 0)
(0.0876737 0.0177941 0)
(0.0684227 0.0350855 0)
(-0.0412979 0.0408011 0)
(0.712846 -0.533007 0)
(0.0370057 -0.2951 0)
(0.157809 -0.0623279 0)
(0.205672 0.0936474 0)
(0.1836 0.194598 0)
(0.141965 0.253492 0)
(0.0974119 0.263672 0)
(0.0516319 0.225293 0)
(0.0042783 0.140163 0)
(-0.0310912 0.0451889 0)
(-0.0537409 0.00360063 0)
(-0.0702928 -0.0140643 0)
(-0.0810363 -0.0227792 0)
(-0.0897966 -0.0284087 0)
(-0.0978698 -0.0316467 0)
(-0.104688 -0.0315699 0)
(-0.107811 -0.0260809 0)
(-0.107484 -0.0134981 0)
(-0.103949 -0.00459152 0)
(-0.0982922 -0.00043348 0)
(-0.0925562 -0.00338512 0)
(-0.0897565 -0.00856917 0)
(-0.089529 -0.0135203 0)
(-0.0897187 -0.0160406 0)
(-0.086581 -0.0149812 0)
(-0.0791527 -0.017468 0)
(-0.0687034 -0.0224081 0)
(-0.0549983 -0.0293501 0)
(-0.0380285 -0.0376614 0)
(-0.0185961 -0.0458074 0)
(0.00516177 -0.0500008 0)
(0.0287721 -0.0457105 0)
(0.0516746 -0.0325903 0)
(0.0717701 -0.00801251 0)
(0.0859745 0.0257016 0)
(0.0931566 0.0510219 0)
(0.0682338 0.0620213 0)
(0.0957038 0.0573997 0)
(0.0750101 0.0444211 0)
(-0.37408 -0.0315656 0)
(0.674784 -0.609403 0)
(-0.181801 -0.306963 0)
(0.0708128 -0.0519806 0)
(0.0884081 0.103579 0)
(0.0636443 0.21472 0)
(0.0450609 0.282613 0)
(0.0279459 0.296526 0)
(0.00919771 0.256985 0)
(-0.0126006 0.165023 0)
(-0.0290826 0.0714291 0)
(-0.0445859 0.0228392 0)
(-0.0576394 -0.0009326 0)
(-0.0665339 -0.0131871 0)
(-0.0732734 -0.0198308 0)
(-0.0790636 -0.0226347 0)
(-0.083552 -0.0216976 0)
(-0.0853646 -0.0175935 0)
(-0.0843035 -0.0127613 0)
(-0.0813148 -0.00869127 0)
(-0.0772614 -0.00664225 0)
(-0.0735379 -0.0078733 0)
(-0.0715246 -0.0110372 0)
(-0.0711885 -0.0146929 0)
(-0.0712999 -0.0176642 0)
(-0.0701767 -0.0202258 0)
(-0.0671509 -0.0249107 0)
(-0.0622785 -0.0320938 0)
(-0.0554706 -0.0414144 0)
(-0.0468881 -0.0518759 0)
(-0.0370146 -0.0616308 0)
(-0.0258502 -0.0676578 0)
(-0.0132417 -0.0669951 0)
(0.00299344 -0.0560194 0)
(0.0222961 -0.03088 0)
(0.0531742 0.0103179 0)
(0.0770283 0.0427933 0)
(0.0880321 0.0523 0)
(0.111371 0.0508844 0)
(0.134437 0.0686438 0)
(-0.0540801 0.0726036 0)
(0.567315 -0.583284 0)
(-0.237312 -0.320422 0)
(0.017749 -0.0823731 0)
(-0.0203047 0.134225 0)
(-0.0479559 0.219548 0)
(-0.0399447 0.284063 0)
(-0.0310817 0.300156 0)
(-0.0254095 0.262069 0)
(-0.02526 0.174365 0)
(-0.027151 0.0854735 0)
(-0.0334029 0.0345441 0)
(-0.0401175 0.00783347 0)
(-0.045869 -0.00700647 0)
(-0.0500752 -0.015275 0)
(-0.0536831 -0.0192525 0)
(-0.0563262 -0.0196602 0)
(-0.0573291 -0.0173475 0)
(-0.0564203 -0.0141445 0)
(-0.054081 -0.0113212 0)
(-0.0511171 -0.00977502 0)
(-0.0485077 -0.0100781 0)
(-0.0471204 -0.0117396 0)
(-0.0471409 -0.0140738 0)
(-0.0481484 -0.0166741 0)
(-0.0495632 -0.0200998 0)
(-0.0511789 -0.0256351 0)
(-0.0530074 -0.0338073 0)
(-0.0550448 -0.0442428 0)
(-0.0573892 -0.0557153 0)
(-0.0600109 -0.0663491 0)
(-0.0623838 -0.0737334 0)
(-0.0633481 -0.0754917 0)
(-0.0610228 -0.0694098 0)
(-0.0529645 -0.0537232 0)
(-0.0349917 -0.0288578 0)
(0.015154 0.00315557 0)
(0.048233 0.00107125 0)
(0.0892644 -0.0133713 0)
(0.136297 0.0258683 0)
(-0.0498088 0.137712 0)
(0.370938 -0.46385 0)
(-0.29235 -0.264624 0)
(-0.187874 -0.0862601 0)
(-0.115773 0.150854 0)
(-0.143622 0.201775 0)
(-0.104536 0.259016 0)
(-0.0710405 0.278724 0)
(-0.0447063 0.246861 0)
(-0.0273939 0.168129 0)
(-0.0169152 0.0874493 0)
(-0.0143281 0.0385711 0)
(-0.0156259 0.0117375 0)
(-0.0182468 -0.00365491 0)
(-0.020449 -0.0125376 0)
(-0.0227052 -0.0170996 0)
(-0.0244963 -0.018477 0)
(-0.025341 -0.0175866 0)
(-0.0249879 -0.015624 0)
(-0.0236268 -0.0136257 0)
(-0.0217603 -0.0122609 0)
(-0.0200559 -0.0118924 0)
(-0.0191377 -0.0123563 0)
(-0.0193275 -0.0133264 0)
(-0.0207244 -0.0146605 0)
(-0.0235186 -0.0168025 0)
(-0.0282703 -0.0206826 0)
(-0.0358589 -0.0270415 0)
(-0.0467942 -0.035804 0)
(-0.0611039 -0.0458511 0)
(-0.0783563 -0.0555376 0)
(-0.0976909 -0.0629874 0)
(-0.117426 -0.0663173 0)
(-0.13531 -0.063569 0)
(-0.148692 -0.0525892 0)
(-0.15467 -0.0318178 0)
(-0.150962 -0.00170301 0)
(-0.145688 0.0329431 0)
(-0.140657 0.0751875 0)
(-0.184839 0.136673 0)
(-0.547271 0.222112 0)
(0.0827107 -0.312894 0)
(-0.581323 -0.228966 0)
(-0.726422 -0.175412 0)
(-0.185296 0.0722322 0)
(-0.221358 0.148161 0)
(-0.14333 0.210081 0)
(-0.088829 0.23742 0)
(-0.0461891 0.215737 0)
(-0.0145555 0.14936 0)
(0.00795839 0.0773451 0)
(0.0168312 0.0361929 0)
(0.019289 0.0124051 0)
(0.0187065 -0.00201105 0)
(0.0172194 -0.0107123 0)
(0.0151087 -0.0154071 0)
(0.012984 -0.0173111 0)
(0.0113361 -0.0173473 0)
(0.0104627 -0.0163713 0)
(0.0103554 -0.0151135 0)
(0.0107468 -0.0140645 0)
(0.0112174 -0.0134666 0)
(0.0113445 -0.0132719 0)
(0.0108367 -0.0132949 0)
(0.00947689 -0.0133654 0)
(0.0069037 -0.0134952 0)
(0.00235128 -0.0139917 0)
(-0.00627684 -0.0155839 0)
(-0.0208732 -0.0188938 0)
(-0.0425554 -0.0238981 0)
(-0.0709775 -0.0294131 0)
(-0.105922 -0.0336355 0)
(-0.145916 -0.0350432 0)
(-0.189115 -0.0326665 0)
(-0.232812 -0.0258059 0)
(-0.273096 -0.0150999 0)
(-0.307331 -0.00527824 0)
(-0.333047 -0.00652138 0)
(-0.352334 -0.029442 0)
(-0.395053 -0.0769599 0)
(-0.628867 -0.141397 0)
(-1.64157 -0.205548 0)
(-0.0694058 -0.10264 0)
(-0.222657 0.054927 0)
(-0.143308 0.14264 0)
(-0.0820686 0.180913 0)
(-0.0288806 0.171476 0)
(0.0181948 0.113904 0)
(0.0470011 0.0618869 0)
(0.0606779 0.030355 0)
(0.0657352 0.011371 0)
(0.0661654 -0.00051684 0)
(0.064169 -0.00794823 0)
(0.0610248 -0.0121253 0)
(0.0574967 -0.0140388 0)
(0.0541335 -0.0145014 0)
(0.0512908 -0.0141511 0)
(0.0490845 -0.0134625 0)
(0.0474169 -0.0127479 0)
(0.046056 -0.0121636 0)
(0.0447388 -0.0117146 0)
(0.0432614 -0.011309 0)
(0.0414927 -0.0108073 0)
(0.0393204 -0.0100412 0)
(0.036589 -0.00881718 0)
(0.032869 -0.0071168 0)
(0.0272805 -0.0052302 0)
(0.0187898 -0.00368309 0)
(0.00745721 -0.00259035 0)
(-0.00835254 -0.0018725 0)
(-0.0244263 -0.000902698 0)
(-0.0392518 0.00129814 0)
(-0.0507496 0.00700258 0)
(-0.0619268 0.0190401 0)
(-0.075982 0.0382185 0)
(-0.0852403 0.0571977 0)
(-0.0754499 0.0552431 0)
(0.104583 -0.0460954 0)
(-0.214073 -0.242697 0)
(-0.458034 0.062613 0)
(0.0268711 -0.113193 0)
(-0.151086 -0.00977579 0)
(-0.115769 0.0754058 0)
(-0.05798 0.11791 0)
(0.00870375 0.115001 0)
(0.0639701 0.0727528 0)
(0.0979149 0.0395411 0)
(0.115495 0.0191783 0)
(0.122262 0.00745891 0)
(0.122848 0.000954561 0)
(0.119995 -0.00255946 0)
(0.115486 -0.00394157 0)
(0.110193 -0.00381469 0)
(0.104704 -0.0026951 0)
(0.099438 -0.000974023 0)
(0.0946094 0.00107711 0)
(0.0902582 0.00328584 0)
(0.0863112 0.00556182 0)
(0.0826557 0.00788868 0)
(0.0792038 0.0103069 0)
(0.0759316 0.0129008 0)
(0.072899 0.0157989 0)
(0.0702618 0.0191712 0)
(0.0682183 0.0231123 0)
(0.0668256 0.0274023 0)
(0.0659373 0.0310389 0)
(0.0649903 0.0329263 0)
(0.0632643 0.0336407 0)
(0.0608159 0.0332766 0)
(0.0581064 0.0325651 0)
(0.0565394 0.0334301 0)
(0.0582347 0.0380666 0)
(0.0639673 0.04526 0)
(0.073732 0.0452277 0)
(0.0978447 0.0138761 0)
(0.142494 -0.0552611 0)
(-0.173008 -0.165055 0)
(0.195795 -0.15389 0)
(-0.207617 -0.0586514 0)
(-0.213896 0.113098 0)
(-0.0456247 -0.0289444 0)
(-0.13602 0.0171392 0)
(-0.0990696 0.0520291 0)
(-0.0358975 0.0772153 0)
(0.062338 0.0703942 0)
(0.12087 0.0451383 0)
(0.160468 0.0248153 0)
(0.181952 0.00986951 0)
(0.190711 -0.00160688 0)
(0.192319 -0.011112 0)
(0.189442 -0.0193175 0)
(0.184216 -0.0266984 0)
(0.177643 -0.0336026 0)
(0.17036 -0.0402946 0)
(0.162814 -0.0469386 0)
(0.155266 -0.0535986 0)
(0.147841 -0.0602591 0)
(0.140593 -0.0668553 0)
(0.13357 -0.0732994 0)
(0.126847 -0.0795003 0)
(0.120546 -0.085364 0)
(0.114848 -0.090763 0)
(0.110021 -0.0954674 0)
(0.106427 -0.0990833 0)
(0.104525 -0.10113 0)
(0.104612 -0.100729 0)
(0.10657 -0.0972023 0)
(0.110378 -0.0918863 0)
(0.116015 -0.0864465 0)
(0.123392 -0.081658 0)
(0.132591 -0.0759197 0)
(0.144556 -0.0668926 0)
(0.160044 -0.0567664 0)
(0.17693 -0.0553879 0)
(0.18674 -0.069941 0)
(0.193135 -0.0957223 0)
(-0.133573 -0.149634 0)
)
;

boundaryField
{
    floor
    {
        type            noSlip;
    }
    ceiling
    {
        type            noSlip;
    }
    sWall
    {
        type            noSlip;
    }
    nWall
    {
        type            noSlip;
    }
    sideWalls
    {
        type            empty;
    }
    glass1
    {
        type            noSlip;
    }
    glass2
    {
        type            noSlip;
    }
    sun
    {
        type            noSlip;
    }
    heatsource1
    {
        type            noSlip;
    }
    heatsource2
    {
        type            noSlip;
    }
    Table_master
    {
        type            noSlip;
    }
    Table_slave
    {
        type            noSlip;
    }
    inlet
    {
        type            fixedValue;
        value           uniform (0.1 0 0);
    }
    outlet
    {
        type            zeroGradient;
    }
}


// ************************************************************************* //
