/*--------------------------------*- C++ -*----------------------------------*\
  =========                 |
  \\      /  F ield         | OpenFOAM: The Open Source CFD Toolbox
   \\    /   O peration     | Website:  https://openfoam.org
    \\  /    A nd           | Version:  6
     \\/     M anipulation  |
\*---------------------------------------------------------------------------*/
FoamFile
{
    version     2.0;
    format      ascii;
    class       volScalarField;
    location    "700";
    object      alphat;
}
// * * * * * * * * * * * * * * * * * * * * * * * * * * * * * * * * * * * * * //

dimensions      [1 -1 -1 0 0 0 0];

internalField   nonuniform List<scalar> 
459
(
0.000990987
0.00105432
0.00105613
0.00109648
0.00113185
0.00116299
0.00119128
0.00121812
0.00124522
0.00126781
0.00128203
0.00128428
0.00127196
0.00124672
0.00121488
0.000521586
0.000632392
0.000626793
0.0006017
0.000575515
0.000550151
0.000525133
0.000501864
0.000480738
0.000461656
0.000444493
0.000428899
0.000414561
0.00040114
0.000388188
0.000375035
0.000360566
0.000353109
0.000329529
0.0014276
0.00264918
0.00234529
0.00270368
0.0029718
0.00325549
0.00353742
0.00379032
0.00397071
0.00412117
0.004232
0.0042563
0.00412238
0.00370512
0.00274689
0.00123587
0.000894161
0.00075167
0.00101736
0.00117887
0.00129089
0.00134347
0.00133978
0.00119715
0.0011009
0.0010263
0.000964152
0.000907653
0.00085558
0.000806065
0.000756335
0.000704999
0.000661001
0.000617923
0.000754888
0.000440294
0.00181349
0.00370761
0.00263723
0.00360831
0.00390249
0.00410501
0.004251
0.0043605
0.00444805
0.00454616
0.00464502
0.00471176
0.00471768
0.00465551
0.00451291
0.0039504
0.00122708
0.00101099
0.00132556
0.00151932
0.00168276
0.0018045
0.00177346
0.000670706
0.000611049
0.00056194
0.000521481
0.000487966
0.000460014
0.000436611
0.00041716
0.000401625
0.000439068
0.0005029
0.000857089
0.000519498
0.00220694
0.00522823
0.00250401
0.00385376
0.00419206
0.00426106
0.00425257
0.00423584
0.00425766
0.00433041
0.00442668
0.0044994
0.00451794
0.00451358
0.00462176
0.00483043
0.00422428
0.00125344
0.0015816
0.00189174
0.00214699
0.0023638
0.00253963
0.00244718
0.000752064
0.000718674
0.000700454
0.000687854
0.000673712
0.000653167
0.000631841
0.000607124
0.000575198
0.0005366
0.000534039
0.00103048
0.000580377
0.00261571
0.0073165
0.00287015
0.00358623
0.00420827
0.00422601
0.00411947
0.00402512
0.00403107
0.0041332
0.00427381
0.00436923
0.00435931
0.00426098
0.00428699
0.00454285
0.00450373
0.00386089
0.00347381
0.00330407
0.00325195
0.00328753
0.00336188
0.00338906
0.00313683
0.00307695
0.00305669
0.00302029
0.00294309
0.00280824
0.00253532
0.00217444
0.0017595
0.0013199
0.000956279
0.000996953
0.00072947
0.000759085
0.000901842
0.00100228
0.00304645
0.00962869
0.00466263
0.0031877
0.00383587
0.00405744
0.00401739
0.00389824
0.0038713
0.00404471
0.00424885
0.00437842
0.00434725
0.004148
0.00407008
0.00428233
0.00434833
0.0040941
0.00387074
0.00374233
0.00365437
0.00362128
0.00363685
0.00367877
0.00370709
0.00373493
0.00373854
0.00370592
0.00363494
0.00352601
0.00332746
0.00300867
0.0025688
0.00203255
0.00151908
0.00109459
0.000915947
0.000858492
0.00129542
0.00104535
0.00347878
0.0114932
0.00806539
0.00458442
0.00353263
0.00338168
0.00357067
0.00384425
0.0039096
0.00413465
0.00433786
0.00445901
0.00439292
0.00410479
0.0039434
0.00419252
0.00433615
0.00413237
0.00392436
0.00376721
0.00363017
0.00357245
0.00358237
0.00362818
0.00368144
0.00371781
0.00372431
0.00370205
0.00365873
0.00360459
0.00354122
0.00332621
0.00294237
0.0024444
0.00196531
0.00149835
0.00124521
0.00121647
0.00132838
0.00116023
0.00358421
0.0111259
0.00939341
0.00778563
0.00610961
0.00492029
0.0044006
0.0044066
0.00440859
0.00445117
0.00454539
0.00460448
0.00445076
0.00402012
0.0037993
0.00419062
0.00444333
0.00419316
0.00386104
0.00360255
0.00346578
0.00342268
0.00342369
0.00343878
0.00345168
0.00345269
0.00343955
0.00342187
0.00341428
0.00343332
0.00349217
0.0035395
0.00324101
0.00284434
0.00250855
0.00237437
0.00258508
0.0033453
0.00451449
0.00185392
0.00351319
0.00425306
0.00488909
0.00516245
0.00518519
0.00496967
0.00473486
0.00461504
0.00457146
0.00463055
0.00473123
0.00474467
0.00442799
0.00377163
0.00354394
0.00424314
0.00459664
0.00418208
0.0037194
0.00344991
0.00332948
0.0032728
0.00323294
0.00319074
0.00313871
0.00307465
0.00300019
0.00291959
0.00283642
0.00275144
0.00266297
0.00256936
0.00248775
0.00244529
0.00247207
0.00255485
0.00260749
0.00254188
0.00237946
0.0017065
0.00270927
0.00491465
0.00524572
0.00527962
0.00523912
0.00522105
0.00520518
0.00515955
0.00505926
0.00479155
0.00409239
0.0031638
0.00309393
0.00437262
0.00474297
0.00415453
0.00368211
0.00344982
0.00333135
0.00324338
0.003156
0.003061
0.00295813
0.00285039
0.00274248
0.00264047
0.0025519
0.00248618
0.00245396
0.00245897
0.00248506
0.00253121
0.00258804
0.00261961
0.00256743
0.00240206
0.00213122
0.00138527
0.00288659
0.00574688
0.00601637
0.00585938
0.00565618
0.00547041
0.00523387
0.00494013
0.00448674
0.00389374
0.00298128
0.00210825
0.00231598
0.00368717
0.00389009
0.00355139
0.00327234
0.00311347
0.00299955
0.00289352
0.00278795
0.00268677
0.00259793
0.00252956
0.00248706
0.00247126
0.00247778
0.0024969
0.00253196
0.00259343
0.00267714
0.00277558
0.00287293
0.00295412
0.00296978
0.00301677
0.00269124
0.00140162
0.00246508
0.002611
0.00273062
0.00287935
0.00270204
0.00255126
0.00230576
0.00210247
0.00190225
0.00171105
0.00156102
0.00142349
0.00127212
0.000948285
0.000902979
0.000940992
0.000920621
0.000892878
0.00087677
0.000868127
0.000864035
0.000863674
0.000867327
0.000875469
0.000888443
0.000906419
0.000929499
0.00095792
0.00099232
0.00103414
0.00108364
0.00114023
0.00120436
0.00127654
0.0013571
0.00146503
0.00150191
0.00147068
0.00137456
0.00127083
)
;

boundaryField
{
    floor
    {
        type            compressible::alphatWallFunction;
        Prt             0.85;
        value           nonuniform List<scalar> 
29
(
0.00017216
7.25021e-05
8.91735e-05
8.83373e-05
8.45915e-05
8.06625e-05
7.68358e-05
7.30398e-05
6.9489e-05
6.62473e-05
6.33037e-05
6.06431e-05
5.82142e-05
5.5971e-05
5.38623e-05
5.18186e-05
4.9734e-05
4.74301e-05
4.62378e-05
4.24469e-05
4.24463e-05
5.99884e-05
7.21802e-05
8.13925e-05
0.000172158
7.25013e-05
0.000106729
0.000143799
0.000177461
)
;
    }
    ceiling
    {
        type            compressible::alphatWallFunction;
        Prt             0.85;
        value           nonuniform List<scalar> 
43
(
0.000336832
0.000355359
0.000370469
0.000389287
0.000367039
0.000347983
0.000316675
0.000290471
0.000264393
0.000239207
0.000219227
0.000200724
0.000180131
0.00013511
0.000128632
0.000134038
0.00013115
0.000127198
0.000124896
0.00012366
0.000123074
0.000123022
0.000123545
0.00012471
0.000126564
0.000129128
0.000132411
0.000136441
0.0001413
0.000147181
0.000154107
0.00016198
0.000170848
0.000180765
0.000191758
0.000206373
0.000211339
0.000207137
0.000194134
0.000179987
0.000468151
0.000558063
0.000389935
)
;
    }
    sWall
    {
        type            compressible::alphatWallFunction;
        Prt             0.85;
        value           uniform 0.000335556;
    }
    nWall
    {
        type            compressible::alphatWallFunction;
        Prt             0.85;
        value           nonuniform List<scalar> 6(0.00014235 0.000148395 0.000164384 0.000195232 0.000197447 0.000179633);
    }
    sideWalls
    {
        type            empty;
    }
    glass1
    {
        type            compressible::alphatWallFunction;
        Prt             0.85;
        value           nonuniform List<scalar> 9(0.000137062 0.000196301 0.000247118 0.000297835 0.000349598 0.00040329 0.00045644 0.000469439 0.000461011);
    }
    glass2
    {
        type            compressible::alphatWallFunction;
        Prt             0.85;
        value           nonuniform List<scalar> 2(0.000255918 0.000236644);
    }
    sun
    {
        type            compressible::alphatWallFunction;
        Prt             0.85;
        value           nonuniform List<scalar> 
14
(
0.000140998
0.000149876
0.000150128
0.000155761
0.00016068
0.000164995
0.000168903
0.000172603
0.000176328
0.000179426
0.000181374
0.000181681
0.000179996
0.000176535
)
;
    }
    heatsource1
    {
        type            compressible::alphatWallFunction;
        Prt             0.85;
        value           nonuniform List<scalar> 3(0.000107958 0.000128513 0.000142742);
    }
    heatsource2
    {
        type            compressible::alphatWallFunction;
        Prt             0.85;
        value           nonuniform List<scalar> 4(0.000175223 0.000127434 0.000127432 0.000174026);
    }
    Table_master
    {
        type            compressible::alphatWallFunction;
        Prt             0.85;
        value           nonuniform List<scalar> 9(9.49975e-05 8.61361e-05 7.87616e-05 7.26258e-05 6.74981e-05 6.31875e-05 5.95527e-05 5.65129e-05 5.40721e-05);
    }
    Table_slave
    {
        type            compressible::alphatWallFunction;
        Prt             0.85;
        value           nonuniform List<scalar> 9(0.000106933 0.000102056 9.93831e-05 9.753e-05 9.54451e-05 9.24062e-05 8.92395e-05 8.55529e-05 8.07632e-05);
    }
    inlet
    {
        type            fixedValue;
        value           uniform 1.94e-05;
    }
    outlet
    {
        type            zeroGradient;
    }
}


// ************************************************************************* //
