/*--------------------------------*- C++ -*----------------------------------*\
  =========                 |
  \\      /  F ield         | OpenFOAM: The Open Source CFD Toolbox
   \\    /   O peration     | Website:  https://openfoam.org
    \\  /    A nd           | Version:  6
     \\/     M anipulation  |
\*---------------------------------------------------------------------------*/
FoamFile
{
    version     2.0;
    format      ascii;
    class       surfaceScalarField;
    location    "2400";
    object      phi;
}
// * * * * * * * * * * * * * * * * * * * * * * * * * * * * * * * * * * * * * //

dimensions      [1 0 -1 0 0 0 0];

internalField   nonuniform List<scalar> 
852
(
-0.00304098
0.00310078
-0.00412287
0.00108189
-0.00492629
0.000803422
-0.0055393
0.000613004
-0.00593021
0.000390907
-0.00607533
0.000145122
-0.00595375
-0.000121578
-0.00555514
-0.000398614
-0.00490571
-0.000649429
-0.0040707
-0.000835004
-0.00314068
-0.000930025
-0.00221157
-0.000929106
-0.00136806
-0.000843512
-0.00064866
-0.000719404
-0.000646599
-0.000809159
0.000812865
-0.000477112
-0.000332047
0.000189478
-0.000666591
0.00071895
-0.000529472
0.00107319
-0.000354236
0.00129498
-0.000221795
0.00141596
-0.00012098
0.00147557
-5.96162e-05
0.00150903
-3.34564e-05
0.00152953
-2.04961e-05
0.0015411
-1.15777e-05
0.00154523
-4.12409e-06
0.00154021
5.01653e-06
0.00151781
2.24025e-05
0.00145552
6.22822e-05
0.00131561
0.000139916
0.00108595
0.000229662
0.000803279
0.000282666
0.000808313
-0.00216449
0.00542591
-0.00321013
0.00212753
-0.00403164
0.00162493
-0.0046332
0.00121457
-0.00501674
0.00077444
-0.00516717
0.00029555
-0.00506098
-0.000227767
-0.00469429
-0.000765298
-0.00410553
-0.0012382
-0.00336637
-0.00157416
-0.00256332
-0.00173308
-0.00177644
-0.00171598
-0.00107712
-0.00154283
-0.000541955
-0.00125457
-0.000314584
-0.000873971
4.86486e-05
-0.000363284
4.85967e-05
0.000371225
0.000452302
0.000800715
-0.000761537
0.00106441
-0.000930289
0.00129168
-0.000756743
0.0014655
-0.000528053
0.0015698
-0.000326098
0.00158668
-0.000137858
0.00159088
-6.3817e-05
0.001596
-3.85744e-05
0.00160026
-2.47564e-05
0.00160304
-1.43602e-05
0.0016044
-5.48219e-06
0.00160351
5.90159e-06
0.00159677
2.91409e-05
0.00155475
0.000104299
0.00137489
0.000319779
0.00106626
0.000538292
0.000684737
0.00066419
0.0015058
-0.00151035
0.00718169
-0.00240853
0.00302571
-0.00313196
0.00234835
-0.00364172
0.00172434
-0.00396918
0.0011019
-0.00409341
0.000419777
-0.00397083
-0.000350351
-0.00360092
-0.0011352
-0.00304582
-0.00179331
-0.00238617
-0.0022338
-0.00170164
-0.00241761
-0.00104975
-0.00236787
-0.000477662
-0.00211492
-2.17839e-05
-0.00171045
0.000280025
-0.00117578
0.000435462
-0.000518722
0.000484059
0.0016009
-0.00113723
0.00182859
-0.000989234
0.00178008
-0.000881774
0.00176475
-0.000741413
0.00178324
-0.000546546
0.00180163
-0.000344484
0.00166392
0.00160026
0.00156184
0.00153723
0.00152303
0.0015177
0.00152375
0.00155305
0.0016575
0.0013593
0.000617982
0.00100251
0.000895082
0.000571877
0.00109482
0.00209689
-0.00104987
0.00854917
-0.00175799
0.00373382
-0.0022288
0.00281917
-0.00255244
0.00204797
-0.0027496
0.00129906
-0.00277889
0.000449074
-0.00257562
-0.000553622
-0.00217112
-0.00153971
-0.00165809
-0.00230633
-0.00111257
-0.00277932
-0.000592177
-0.00293801
-0.000121764
-0.00283829
0.000284904
-0.00252159
0.000626414
-0.00205196
0.00093791
-0.00148728
0.00130713
-0.000887945
0.00216247
-0.000371281
0.00261112
-0.000438408
0.00218594
-0.000712054
0.00204166
-0.000844951
0.0019153
-0.000755421
0.00180494
-0.000631051
0.00174129
-0.00048289
0.00170734
-0.000310543
0.00183473
-0.000127542
0.00191224
-7.76639e-05
0.00197258
-6.04887e-05
0.00201615
-4.3731e-05
0.00202785
-1.18512e-05
0.0019863
4.13935e-05
0.00186711
0.000119034
0.00163814
0.000228823
0.00124428
0.000393703
0.00110079
0.000761475
0.000785957
0.00120991
0.000302021
0.00157875
0.00242401
-0.000732026
0.00966013
-0.00126603
0.00426783
-0.00134906
0.0029022
-0.00138422
0.00208313
-0.00136468
0.00127952
-0.0011817
0.000266092
-0.000813598
-0.00092172
-0.000376113
-0.00197719
4.3035e-05
-0.00272548
0.000398805
-0.00313509
0.000680642
-0.00321985
0.000894052
-0.0030517
0.00106119
-0.00268873
0.00120704
-0.00219781
0.00136448
-0.00164471
0.00158023
-0.0011037
0.00189435
-0.000685397
0.00201073
-0.000554792
0.00191062
-0.000611946
0.00171836
-0.000652693
0.00155408
-0.000591136
0.00141757
-0.00049455
0.00132146
-0.000386775
0.00128055
-0.000269634
0.00132182
-0.000168816
0.00137091
-0.000126746
0.00142444
-0.000114021
0.00147838
-9.76776e-05
0.001521
-5.44714e-05
0.00153191
3.04911e-05
0.00149078
0.000160154
0.00138596
0.000333645
0.00121908
0.000560589
0.00107063
0.000909923
0.000905521
0.00137502
0.000507473
0.0019768
0.000378631
0.00255285
-0.0011185
0.00149693
-0.00157857
0.000459858
-0.00152454
-0.000635071
0.0107259
-0.000993629
0.00462638
-0.000533983
0.00244255
-9.83692e-05
0.00164751
0.000293169
0.00088798
0.000805122
-0.000245862
0.00133068
-0.00144728
0.00171451
-0.00236102
0.00193494
-0.00294591
0.00201307
-0.00321322
0.00199026
-0.00319704
0.00189597
-0.00295741
0.00176767
-0.00256043
0.00164229
-0.00207243
0.00155086
-0.00155329
0.00151487
-0.0010677
0.00152411
-0.000694646
0.00147683
-0.000507513
0.00133225
-0.000467365
0.00113363
-0.000454072
0.000955457
-0.000412961
0.000816474
-0.000355567
0.000724285
-0.000294587
0.000688706
-0.000234055
0.00070909
-0.000189201
0.000759114
-0.000176771
0.00082605
-0.000180958
0.00090451
-0.000176138
0.000988535
-0.000138497
0.00106352
-4.44987e-05
0.00111108
0.000112598
0.00112961
0.000315114
0.00112733
0.000562872
0.00115316
0.000884088
0.00126132
0.00126685
0.00145569
0.00178244
0.00195698
0.00205156
0.00223695
0.00121696
0.00185455
0.000842263
0.000394731
-0.000661899
0.0118658
-0.00051397
0.00447846
0.000719559
0.00120902
0.00164477
0.000722299
0.0025031
2.96544e-05
0.00329547
-0.00103824
0.00378045
-0.00193226
0.00395723
-0.00253779
0.00387186
-0.00286055
0.00358866
-0.00293002
0.00317903
-0.00278741
0.0027064
-0.00248478
0.00222831
-0.00208235
0.00179189
-0.001636
0.00142619
-0.00118759
0.00114444
-0.000785945
0.000938471
-0.000488681
0.000760354
-0.000329397
0.000572528
-0.000279539
0.000385942
-0.000267487
0.000227827
-0.000254847
0.000110564
-0.000238304
3.81111e-05
-0.000222135
1.36972e-05
-0.000209642
3.27563e-05
-0.00020826
7.96427e-05
-0.000223658
0.000143879
-0.000245194
0.000224211
-0.000256471
0.00032528
-0.000239567
0.000452786
-0.000172005
0.000590885
-2.55017e-05
0.000728321
0.000177677
0.000879638
0.000411555
0.00108518
0.000678544
0.00140099
0.000951043
0.00190158
0.00128185
0.00265138
0.00130175
0.00323261
0.00063573
0.00330234
0.000772532
0.00376697
0.00277136
0.00962965
0.00355268
0.00369713
0.00417891
0.000582799
0.00518892
-0.000287712
0.00611533
-0.000896755
0.00657498
-0.00149789
0.00659162
-0.00194891
0.00623775
-0.00218392
0.00560316
-0.00222596
0.00478779
-0.00211465
0.00389028
-0.0018899
0.00299296
-0.00158746
0.00216224
-0.00125163
0.0014448
-0.00091856
0.000859912
-0.000602707
0.000416204
-0.000342238
0.000105822
-0.000178299
-0.000113415
-0.000110161
-0.000286688
-0.000106267
-0.000431076
-0.000123099
-0.000546143
-0.000139781
-0.000630525
-0.000153923
-0.000684663
-0.000167997
-0.000709769
-0.000184537
-0.000711135
-0.000206895
-0.000698969
-0.000235824
-0.000679276
-0.000264888
-0.000650805
-0.000284942
-0.00060427
-0.000286101
-0.000519635
-0.000256641
-0.000365087
-0.00018005
-0.000158328
-2.90827e-05
8.26006e-05
0.000170626
0.000380812
0.000380332
0.000748683
0.000583172
0.00124433
0.000786199
0.00176406
0.00078202
0.00185544
0.000544351
0.00082936
0.00179861
0.00489219
0.0102226
0.0139159
0.0129806
0.00151801
0.0123589
0.00033399
0.0116027
-0.000140504
0.0105593
-0.000454495
0.00924803
-0.000637644
0.00778152
-0.000717412
0.00626128
-0.00070572
0.00477464
-0.000628004
0.00340023
-0.000515496
0.0021873
-0.000374528
0.00116872
-0.000233045
0.000352352
-0.000102194
-0.000253723
3.36721e-06
-0.000647009
5.10477e-05
-0.000877374
5.2065e-05
-0.00102094
3.34076e-05
-0.00113094
3.72751e-06
-0.00122597
-2.80687e-05
-0.00130769
-5.80545e-05
-0.00137698
-8.46362e-05
-0.00143544
-0.000109542
-0.0014865
-0.000133471
-0.00153635
-0.000157045
-0.00159352
-0.000178658
-0.00166571
-0.0001927
-0.00176008
-0.000190573
-0.00188494
-0.000161237
-0.00205097
-9.06182e-05
-0.00226555
3.45357e-05
-0.002516
0.000221362
-0.00283181
0.000486436
-0.0032999
0.000848424
-0.00402166
0.00130493
-0.00505988
0.00182442
-0.00653397
0.00225611
-0.0083599
0.00237028
-0.00804602
0.00148473
-0.002827
0.00437541
0.00337876
0.00335902
0.00135038
0.00365063
-0.000432112
0.0035881
-0.000391966
0.00312943
-0.000178981
0.00244293
-3.09065e-05
0.00164073
9.64782e-05
0.000816214
0.000196512
4.48712e-05
0.000255846
-0.000602783
0.000273126
-0.00108776
0.000251926
-0.00141637
0.000226417
-0.00160827
0.000195274
-0.001713
0.000155769
-0.00177769
0.000116762
-0.00182714
8.28555e-05
-0.00187621
5.27918e-05
-0.001931
2.67251e-05
-0.00199208
3.02704e-06
-0.00205677
-1.9953e-05
-0.00212419
-4.21162e-05
-0.00219738
-6.02832e-05
-0.00228022
-7.42097e-05
-0.0023761
-8.27767e-05
-0.00248598
-8.28158e-05
-0.0026074
-6.91606e-05
-0.00273297
-3.56593e-05
-0.00284979
2.61992e-05
-0.00294913
0.000133878
-0.00303324
0.000305471
-0.00310898
0.000562174
-0.00318183
0.000921269
-0.00325002
0.00137313
-0.00325696
0.00183135
-0.00309615
0.0020953
-0.0021164
0.00139053
-0.000205687
-0.00042598
-0.00294832
-0.000788598
0.00425182
-0.000342728
0.000904508
-0.00102095
0.000246106
-0.00154133
0.000128415
-0.00189484
0.00017453
-0.00215777
0.000232025
-0.00234432
0.00028303
-0.00247297
0.000325159
-0.00255572
0.000338601
-0.0025984
0.000315797
-0.00261332
0.000266846
-0.00260004
0.000213146
-0.00256697
0.000162196
-0.00252868
0.000117481
-0.0024947
8.27863e-05
-0.00246923
5.73832e-05
-0.00245467
3.82306e-05
-0.00245074
2.27904e-05
-0.00245697
9.25987e-06
-0.00247137
-5.5512e-06
-0.00249464
-1.88485e-05
-0.00252641
-2.8515e-05
-0.00256633
-3.42905e-05
-0.00261341
-3.56989e-05
-0.00266504
-3.11838e-05
-0.00271626
-1.79409e-05
-0.00275955
7.63125e-06
-0.00278154
4.81869e-05
-0.00276137
0.000113707
-0.00267494
0.000219037
-0.00249066
0.0003779
-0.00218082
0.000611422
-0.00173972
0.00093203
-0.0011349
0.00122654
-3.03428e-05
0.000990738
0.00183666
-0.000476475
0.00346879
-0.00205811
0.000612014
-0.00787955
-0.0111386
-0.00683148
-0.00589884
-0.00563355
-0.00548972
-0.00530212
-0.00505868
-0.00476538
-0.0044307
-0.00408299
-0.0037582
-0.00348222
-0.0032597
-0.00308787
-0.00296049
-0.00286757
-0.00279985
-0.00275111
-0.00271767
-0.00269769
-0.0026925
-0.00270065
-0.00271854
-0.00274233
-0.00276768
-0.00278871
-0.00279672
-0.00277943
-0.00272187
-0.00259911
-0.00237138
-0.00198517
-0.00136584
-0.000426328
0.000807163
0.00180457
0.00133507
-0.000716908
)
;

boundaryField
{
    floor
    {
        type            calculated;
        value           nonuniform List<scalar> 
29
(
0
0
0
0
0
0
0
0
0
0
0
0
0
0
0
0
0
0
0
0
-5.03524e-06
-1.27467e-05
-1.9214e-05
-2.51044e-05
-2.06115e-06
-3.70624e-06
-1.06633e-05
-1.13633e-05
-1.02406e-05
)
;
    }
    ceiling
    {
        type            calculated;
        value           nonuniform List<scalar> 
43
(
-5.92988e-05
-5.70711e-05
-5.52844e-05
-2.81307e-05
-1.91841e-05
-1.54138e-05
-1.30692e-05
-1.14179e-05
-1.02717e-05
-9.51783e-06
-9.10558e-06
-9.00229e-06
-9.13117e-06
-9.37213e-06
-9.63936e-06
-9.89567e-06
-1.01306e-05
-1.03397e-05
-1.05147e-05
-1.06445e-05
-1.07208e-05
-1.07399e-05
-1.07045e-05
-1.06248e-05
-1.05045e-05
-1.03467e-05
-1.01538e-05
-9.92727e-06
-9.66679e-06
-9.37143e-06
-9.04715e-06
-8.69499e-06
-8.31625e-06
-7.9109e-06
-7.47791e-06
-6.95049e-06
-6.67503e-06
-6.97391e-06
-6.12484e-06
-3.80855e-06
6.31761e-06
3.89026e-06
-8.44636e-05
)
;
    }
    sWall
    {
        type            calculated;
        value           uniform -0.000279576;
    }
    nWall
    {
        type            calculated;
        value           nonuniform List<scalar> 6(-5.42322e-05 -6.4724e-05 -6.98939e-05 -8.43689e-05 -9.15479e-05 -0.000101086);
    }
    sideWalls
    {
        type            empty;
        value           nonuniform 0();
    }
    glass1
    {
        type            calculated;
        value           nonuniform List<scalar> 9(-5.97955e-05 -0.000160644 -0.000245426 -0.000317612 -0.000378937 -0.000430698 -0.000477962 -0.000535252 -0.00059928);
    }
    glass2
    {
        type            calculated;
        value           nonuniform List<scalar> 2(-0.000295865 -0.00032683);
    }
    sun
    {
        type            calculated;
        value           uniform 0;
    }
    heatsource1
    {
        type            calculated;
        value           nonuniform List<scalar> 3(2.05041e-07 2.04925e-07 2.04944e-07);
    }
    heatsource2
    {
        type            calculated;
        value           nonuniform List<scalar> 4(5.14188e-08 5.1527e-08 0 0);
    }
    Table_master
    {
        type            calculated;
        value           nonuniform List<scalar> 9(-1.53792e-07 -1.53884e-07 -1.53916e-07 -1.53938e-07 -1.53953e-07 -1.53964e-07 -1.53968e-07 -1.53962e-07 -1.5393e-07);
    }
    Table_slave
    {
        type            calculated;
        value           nonuniform List<scalar> 9(1.53656e-07 1.53682e-07 1.53663e-07 1.53648e-07 1.53645e-07 1.53648e-07 1.53667e-07 1.53715e-07 1.53802e-07);
    }
    inlet
    {
        type            calculated;
        value           uniform -0.00623615;
    }
    outlet
    {
        type            calculated;
        value           nonuniform List<scalar> 2(0.00821842 0.0033161);
    }
}


// ************************************************************************* //
