/*--------------------------------*- C++ -*----------------------------------*\
  =========                 |
  \\      /  F ield         | OpenFOAM: The Open Source CFD Toolbox
   \\    /   O peration     | Website:  https://openfoam.org
    \\  /    A nd           | Version:  6
     \\/     M anipulation  |
\*---------------------------------------------------------------------------*/
FoamFile
{
    version     2.0;
    format      ascii;
    class       volScalarField;
    location    "300";
    object      alphat;
}
// * * * * * * * * * * * * * * * * * * * * * * * * * * * * * * * * * * * * * //

dimensions      [1 -1 -1 0 0 0 0];

internalField   nonuniform List<scalar> 
459
(
0.000839171
0.000862107
0.000776087
0.000804473
0.000837314
0.000869228
0.000900047
0.000930415
0.000961515
0.000992097
0.00101683
0.00103327
0.00103884
0.00103088
0.00100281
0.000530586
0.000609832
0.000506788
0.00038582
0.000305905
0.000261742
0.000237347
0.000226434
0.000222504
0.000228284
0.00024617
0.000277662
0.000325053
0.00038957
0.00047245
0.000578287
0.000657708
0.000650657
0.000548471
0.00146209
0.00262456
0.00188725
0.00259201
0.00284371
0.00308645
0.00333825
0.00357874
0.00377798
0.00392398
0.0040063
0.00397997
0.00377025
0.00325509
0.00229662
0.00105802
0.000743253
0.00061399
0.00173311
0.00133071
0.000976532
0.000669287
0.000440381
0.00038193
0.00038287
0.000381861
0.000363936
0.000343203
0.000357096
0.000465804
0.000711908
0.00104537
0.00151101
0.00164327
0.00158286
0.000574677
0.00200238
0.00438589
0.00200054
0.00360131
0.0042223
0.00450361
0.00474214
0.00494887
0.00511304
0.00523344
0.00529161
0.00523921
0.00499634
0.00444812
0.00349543
0.00224003
0.00108277
0.000885677
0.0020466
0.00154704
0.00118597
0.000924402
0.000650067
0.000272417
0.000227194
0.000212507
0.000206515
0.000220849
0.000281229
0.000394793
0.000547669
0.000746201
0.00190913
0.00191376
0.00150745
0.000792083
0.00250788
0.00656938
0.00235072
0.00370007
0.00490603
0.00523914
0.00545412
0.00564066
0.00580348
0.00593655
0.00605639
0.0061308
0.00608288
0.00578074
0.00504857
0.00376979
0.00218274
0.00113235
0.00203766
0.00219625
0.00193291
0.00170981
0.00151273
0.00124855
0.000972874
0.000993422
0.00101465
0.00103332
0.00104844
0.00106094
0.00107365
0.0010905
0.00113022
0.002598
0.00321223
0.003193
0.00112056
0.00297329
0.00891156
0.00328159
0.00334604
0.00502051
0.00548791
0.00570413
0.00587945
0.00604193
0.00620203
0.00641685
0.00670668
0.00702953
0.00730217
0.00740865
0.00723512
0.00673105
0.0059298
0.00509073
0.004685
0.00455435
0.00452368
0.00444214
0.0043682
0.00431757
0.00433702
0.00436333
0.00437686
0.00437135
0.00435941
0.00436764
0.00442133
0.00451275
0.00461831
0.00459281
0.00442964
0.00376502
0.00155964
0.00134714
0.0012098
0.00340823
0.0110148
0.00516407
0.00326139
0.00442848
0.00516092
0.00551551
0.0057318
0.00586553
0.00596048
0.00618313
0.00656775
0.00709206
0.00769734
0.00827075
0.00866173
0.0087288
0.00842755
0.00788868
0.00734168
0.00691592
0.0066104
0.00638097
0.00619035
0.00602068
0.00587916
0.0057592
0.00563738
0.00549346
0.00533114
0.00517853
0.00506408
0.00498529
0.00491064
0.00481786
0.00466462
0.00432545
0.00388951
0.00264243
0.00149937
0.00380578
0.0125372
0.00829044
0.00476883
0.00374481
0.00412574
0.00478533
0.00527905
0.0055186
0.00550293
0.00564846
0.00594651
0.00641916
0.00707082
0.00782721
0.00852603
0.00897779
0.00907621
0.00886901
0.00852834
0.00820453
0.00794499
0.00772712
0.00751274
0.00728238
0.00705467
0.00685073
0.00665408
0.00642236
0.00612618
0.00577443
0.0054076
0.00507333
0.00478643
0.00451876
0.00421116
0.00379773
0.00330674
0.00282047
0.00142119
0.00387663
0.0123077
0.010026
0.00810698
0.00602859
0.00488212
0.00472922
0.00501878
0.00524542
0.00524704
0.00526666
0.0053645
0.0055802
0.00596635
0.00655566
0.00728315
0.00796336
0.00841116
0.00856068
0.00851806
0.00842026
0.00834469
0.00830359
0.00826787
0.00819514
0.00807305
0.00793467
0.00780811
0.00767538
0.0074918
0.0072219
0.0068258
0.00630969
0.00572059
0.00511535
0.00454562
0.00396336
0.0034452
0.00303361
0.00169517
0.00374164
0.0044203
0.00608118
0.00654178
0.00624689
0.00569707
0.00525375
0.00499699
0.00487047
0.00481606
0.0048142
0.00484263
0.00490437
0.00503012
0.00527337
0.00567599
0.00620178
0.00672325
0.00711903
0.00736899
0.0075274
0.00765839
0.00780296
0.00797423
0.00816022
0.0083314
0.00845901
0.00853738
0.0085819
0.00860502
0.0085724
0.00848971
0.00835943
0.00824013
0.00815151
0.00778196
0.00676848
0.00539249
0.00546152
0.0018214
0.00912884
0.0114078
0.00821409
0.00692595
0.00615982
0.00565198
0.00530034
0.00503803
0.0048287
0.00465762
0.00451919
0.00441881
0.00437537
0.00441937
0.00457737
0.00484371
0.00517126
0.00550314
0.00580669
0.00607965
0.00633827
0.00660438
0.00689571
0.00721566
0.00754308
0.00784734
0.00809808
0.00828192
0.00840942
0.00848382
0.00849469
0.00844496
0.00832696
0.00802826
0.00729381
0.00613964
0.00549202
0.00176989
0.00494486
0.0112061
0.00857154
0.00722831
0.0063856
0.00577346
0.00530016
0.00491947
0.00459207
0.00428733
0.00401711
0.00378914
0.00361007
0.0034878
0.00343185
0.00345011
0.00354286
0.00369497
0.00387873
0.00408096
0.00429241
0.00450993
0.00473728
0.00498514
0.00526844
0.00558744
0.00592381
0.00624236
0.00651046
0.00670862
0.00682382
0.00684278
0.0067428
0.00639822
0.00572034
0.00476245
0.00448666
0.00156384
0.00287783
0.00337389
0.00398159
0.00358934
0.00320361
0.00288949
0.00259988
0.00235204
0.00214078
0.00195826
0.00180141
0.00166865
0.00155283
0.00145022
0.00135896
0.00127834
0.00120824
0.00114877
0.00109991
0.0010618
0.00103453
0.0010158
0.00100372
0.000996988
0.000994951
0.000997762
0.00100647
0.00102276
0.0010487
0.00108585
0.00113381
0.00118846
0.00124143
0.00128138
0.00129692
0.00129275
0.00127587
0.00124349
0.00125066
0.00117893
)
;

boundaryField
{
    floor
    {
        type            compressible::alphatWallFunction;
        Prt             0.85;
        value           nonuniform List<scalar> 
29
(
0.000142665
7.38998e-05
8.58604e-05
7.02721e-05
5.14824e-05
3.865e-05
3.13651e-05
2.7265e-05
2.54098e-05
2.47331e-05
2.57079e-05
2.87239e-05
3.39704e-05
4.17211e-05
5.20413e-05
6.49794e-05
8.10916e-05
9.2945e-05
9.19e-05
7.65946e-05
7.65937e-05
8.0547e-05
0.000112582
0.000159079
0.000142664
7.38989e-05
8.6458e-05
0.000126065
0.000160754
)
;
    }
    ceiling
    {
        type            compressible::alphatWallFunction;
        Prt             0.85;
        value           nonuniform List<scalar> 
43
(
0.000389278
0.000450919
0.000525184
0.000477445
0.000429917
0.00039078
0.000354301
0.000322741
0.000295561
0.000271843
0.000251269
0.000233701
0.000218249
0.000204451
0.000192087
0.000181086
0.000171457
0.000163237
0.000156445
0.000151124
0.000147301
0.000144666
0.000142963
0.000142012
0.000141721
0.000142114
0.000143337
0.000145625
0.000149262
0.000154456
0.000161131
0.0001687
0.000175998
0.000181483
0.000183613
0.000183049
0.000180743
0.000176305
0.000177284
0.000167401
0.000496136
0.000578197
0.000640627
)
;
    }
    sWall
    {
        type            compressible::alphatWallFunction;
        Prt             0.85;
        value           uniform 0.000388142;
    }
    nWall
    {
        type            compressible::alphatWallFunction;
        Prt             0.85;
        value           nonuniform List<scalar> 6(0.000171239 0.000210661 0.000200109 0.000246724 0.000219349 0.000167069);
    }
    sideWalls
    {
        type            empty;
    }
    glass1
    {
        type            compressible::alphatWallFunction;
        Prt             0.85;
        value           nonuniform List<scalar> 9(0.000116042 0.000201123 0.00027182 0.000336251 0.000394464 0.000448075 0.000496504 0.000505223 0.000489103);
    }
    glass2
    {
        type            compressible::alphatWallFunction;
        Prt             0.85;
        value           nonuniform List<scalar> 2(0.000235385 0.000252046);
    }
    sun
    {
        type            compressible::alphatWallFunction;
        Prt             0.85;
        value           nonuniform List<scalar> 
14
(
0.000119422
0.000122695
0.000110293
0.000114403
0.000119137
0.000123715
0.000128118
0.000132439
0.000136847
0.000141165
0.000144647
0.000146953
0.000147733
0.000146614
)
;
    }
    heatsource1
    {
        type            compressible::alphatWallFunction;
        Prt             0.85;
        value           nonuniform List<scalar> 3(0.000219068 0.000190388 0.000171618);
    }
    heatsource2
    {
        type            compressible::alphatWallFunction;
        Prt             0.85;
        value           nonuniform List<scalar> 4(0.000150548 0.000105643 0.000105642 0.000153999);
    }
    Table_master
    {
        type            compressible::alphatWallFunction;
        Prt             0.85;
        value           nonuniform List<scalar> 9(3.3243e-05 2.56561e-05 2.31451e-05 2.2106e-05 2.45367e-05 3.4624e-05 5.29187e-05 7.65423e-05 0.00010604);
    }
    Table_slave
    {
        type            compressible::alphatWallFunction;
        Prt             0.85;
        value           nonuniform List<scalar> 9(0.000138601 0.00014151 0.000144509 0.000147142 0.000149273 0.00015103 0.000152811 0.000155165 0.000160673);
    }
    inlet
    {
        type            fixedValue;
        value           uniform 1.94e-05;
    }
    outlet
    {
        type            zeroGradient;
    }
}


// ************************************************************************* //
