/*--------------------------------*- C++ -*----------------------------------*=========                 |
  \      /  F ield         | OpenFOAM: The Open Source CFD Toolbox
   \    /   O peration     | Website:  https://openfoam.org
    \  /    A nd           | Version:  6
     \/     M anipulation  |
\*---------------------------------------------------------------------------*/
FoamFile
{
    version     2.0;
    format      ascii;
    class       volScalarField;
    location    "300";
    object      PPD;
}
// * * * * * * * * * * * * * * * * * * * * * * * * * * * * * * * * * * * * * //

dimensions      [0 0 0 0 0 0 0];

internalField   nonuniform List<scalar> 
459
(
63.58869460754212
53.9368436254539
55.02394387764958
54.5633983257482
54.094510019647686
53.7116157769335
53.43005495974835
53.30284063324683
53.35727787785496
53.5775902377046
54.007150789542706
54.76941702958271
55.94187282500853
57.246873103861674
56.79409786723323
50.1912389662091
49.61971288666374
49.36020107192983
49.30832054095282
49.23051376690526
48.58281342945328
47.729927646261004
47.111316769690696
46.674068315414786
46.340258314189846
46.13508661397776
46.13508661397776
46.391581329735935
46.956902140221466
47.729927646261004
48.63458215932216
48.4793018005492
48.01394134923125
47.988109910374625
64.05596799410796
54.72102819084819
56.779054603866236
56.07311702168369
55.7571073292535
55.57499339805891
55.4757208539783
55.46459515112664
55.58365886131564
55.76982815330081
55.96746045804692
56.167763889454186
56.362085325105674
56.403821663554844
55.9105611376895
55.33380997593759
55.45912854628332
46.00319288384608
49.74953487536095
49.049031470986044
48.58281342945328
48.11729063707271
47.39466152497494
46.2889472591294
45.444108786358946
44.88286990943194
44.50117816695165
44.29794379509603
44.3995314295932
45.06126572028998
46.391581329735935
48.19482703684867
49.77550439788649
49.20458195505476
48.42755906010744
44.17447583404056
67.96909887411559
55.2582378832671
59.053837336837454
58.07987531186452
58.01259209468342
58.09885699268742
58.259353646646105
58.42894232275568
58.607869102633956
58.77904597511346
58.72790280485296
58.40978209636942
57.675827881063306
56.44454251393873
54.844816304446965
53.185405684138544
51.80784591818194
50.89365271508415
50.73747520981586
50.685426385855365
50.60736313077326
50.29523511568982
49.2564474752017
45.52076799461922
44.552023518215556
44.04423707209528
43.71499073839276
43.61381708495378
43.968199135286376
45.16328243708337
47.24007006057519
49.85342303272145
51.90979904124761
50.555327734498256
50.139249982339734
44.13494070020995
72.57168627784684
56.45865740314003
61.29973459468972
60.17053953054212
60.50701953528256
61.01030334713769
61.587103572947804
62.11396018370111
62.52621475741139
62.746196470872725
62.67826546353315
62.054101038842575
60.77373375296288
58.78632344346819
56.16481145376937
53.04701769983319
49.81367285093486
47.95914779758832
49.24216928397677
50.26875883189393
51.765835440190585
52.39973596529654
52.67862529502254
52.78518287621197
53.21588029921114
53.9009625743
54.750434489938854
55.83086774457203
56.21544253294181
56.08509179310337
55.980795427861764
55.824326224978115
55.71999800222288
55.380855287781245
54.832812914290834
54.310722009759594
52.39880501624002
77.01172583317631
58.34246542540912
63.15799684928731
62.19007605291676
62.93534315269036
63.95139942403838
65.03319944056545
66.0782403025056
66.93545562317829
67.49975479124643
67.64896983441827
67.15496613121744
65.9500379166841
64.0290855243413
61.55906909553338
58.72562803672191
56.12758244993588
54.384618803981844
53.73516475396689
54.369305875414035
55.361617234668515
55.91009112186854
55.93507165509225
55.79450712171862
55.72726309205803
55.79216941205133
55.98713950908512
56.31926146103975
56.8474991405379
57.4886556935794
57.75145934688371
57.907395462944095
58.16715668728583
58.50458314619629
58.97125598455005
59.56656589237596
60.03160250460577
58.53240908664126
49.405676820166015
41.85685281012033
80.79484603438173
60.96018549617592
65.30439425593443
64.2624938728521
65.1670009497181
66.64616266201702
68.25150407206806
69.85352225398343
71.27443382237303
72.35335567558347
72.80304393237279
72.55811334175053
71.65374792698861
70.16686631922379
68.1308018275445
65.81103472007547
63.59311599101141
61.92237929256323
61.00688907877286
60.75569042808748
60.76585325897908
60.621218998231306
60.22989823200989
59.65503251734929
59.05101773663618
58.44530714429671
57.93226968485146
57.585541936124706
57.447392853763255
57.5441819601004
57.848486090270015
58.27555100811332
58.839296231664875
59.60053468505167
60.614544348887996
61.76713417302558
62.440898016458014
62.84672966490311
54.622899531345425
57.334500342121935
83.79778891614889
65.81522477225991
71.57815617964093
68.00033020842481
67.92877218652131
69.7452116125256
71.76568587829934
73.13363002005595
74.54104987337271
75.84990184967603
76.69793587577439
77.08458215216932
76.63509984132469
75.7223470489311
74.40887334054518
72.80102244332659
71.14432477132755
69.72555776075652
68.68629161153318
67.7591484199099
66.8725327200296
66.15314260235468
65.45443955669273
64.70160553275738
63.86877907038514
62.75852572508388
61.46469672804001
60.337740971784726
59.51155769573917
59.07355283059551
58.96744041969449
59.13579064692702
59.44820620200122
59.88823596957855
60.295971752697994
60.53596763277216
60.57538550910962
60.58247948276578
60.98812803847202
50.62879250694082
88.08980226048394
79.55826630914237
79.66041542615466
74.71766624217214
73.1682436183871
73.97135401981609
74.4062514649362
75.12159806771201
76.24189730637197
76.70212840813178
77.18227884854541
77.58165421309792
77.87315158614251
78.01328679354448
77.97068607316193
77.27675951292441
76.0468367555812
74.60833381486111
73.20245686929829
71.95273704047847
70.89442488872793
69.98946397355832
69.12311936136025
68.27287873645697
67.31675596647489
66.25263256486113
65.12873182311196
64.09638188846935
63.38718062529073
63.0683104221151
62.33231819906773
61.907721097264854
61.588962974128385
61.29530157214488
60.93119399238848
60.539838432788706
60.20552253520802
60.00952916634481
59.26912732917189
56.194861319568126
92.84235516038942
89.67745835935953
86.50180471150344
82.85052370051518
79.51618824249145
77.4719151679264
76.30286526347284
75.82087180746676
75.76458908285166
75.94551734305178
76.26444710007407
76.62884164789016
77.00400302119101
77.32558391656528
77.56865002353524
77.6791286783405
77.57911088184176
77.23142501450995
76.69913895188489
75.71820553234936
74.69792569961155
73.75044694610399
72.85760385460416
71.9760845519541
71.03638604287839
70.03734155710657
68.929454791555
67.7591484199099
66.62497325693286
65.72939755829708
65.07855150377807
64.85250855865998
64.97813452776039
65.30421359539976
65.72939755829708
66.27749207888886
67.07018742456032
68.12636682546395
64.69221163664125
59.568675044245495
37.59709629516663
75.97758148604304
78.49944986150061
78.40024774654262
77.77483435180342
77.23919494346654
76.96216415045956
76.82525026694235
76.79075852448372
76.82301743270055
76.9166342139658
77.03994742296675
77.13730243999376
77.22070669505186
77.18717400067302
76.99544791069982
76.64811650645973
76.16118514111116
75.56777034263493
74.92829197893458
74.27872904592644
73.62841582295194
72.96004902225113
72.25261217648253
71.50102882329807
70.69852734553044
69.78710022665041
68.74617935366045
67.66559329303274
66.58848379348493
65.69221206852143
65.10967714893661
64.7906753665043
64.76411076497479
64.97246304686901
64.91125627765736
62.3999937786418
61.52218079066667
48.64179020163538
73.68207790034256
78.39949632150683
78.65089979659918
78.12982907836921
77.62526374242617
77.27865859573498
77.0565328408271
76.92595425007406
76.89445639513153
76.89405717620158
76.90356471094604
76.94809945943682
76.94006288443107
76.91074216804861
76.8061379258115
76.60317964937516
76.30831763375582
75.95345896371984
75.52138222974051
75.03830349379231
74.50560683994695
73.92246762846283
73.28653133844284
72.57248217252868
71.76897461692909
70.80826271423652
69.70821627562889
68.43273312098091
67.08382152551268
65.80935673279346
64.7307014102332
63.986179892935255
63.63930918202671
63.78535120842971
64.37278192820264
63.312027669476166
62.485259676646194
59.095821103017805
57.53130459635906
55.06384288977395
74.070584665068
80.87388823569684
79.6288535214119
78.53904397435392
77.7471153687617
77.2478648107017
76.99041838336014
76.8367325263304
76.79617484972457
76.78171866545692
76.78444095417396
76.75390009028891
76.66830310136058
76.53822407770315
76.34028576660724
76.10806640483987
75.8365340503612
75.52060002377642
75.21131818173257
74.86318709494898
74.49917912058851
74.09340285454184
73.66673418440678
73.19027625104846
72.63043325209131
71.97313189685048
71.19983570319748
70.29131648746437
69.26254612644476
68.15068785535671
67.1300440169561
66.29655302069096
65.75689664925054
65.52094875908847
65.75952420360298
64.95910592007843
63.813721368539426
)
;

boundaryField
{
    ".*"
    {
        type            zeroGradient;
    }
}


// ************************************************************************* //
