// -*- C++ -*-
// File generated by PyFoam - sorry for the ugliness

FoamFile
{
 version 2.0;
 format ascii;
 class volVectorField;
 location "300";
 object U;
}

dimensions [ 0 1 -1 0 0 0 0 ];

internalField nonuniform List<vector> 459
(
  (0.102425 0.0653242 0)
  (-0.13386 -0.000135919 0)
  (-0.109857 0.00338629 0)
  (-0.119829 0.00509728 0)
  (-0.13028 0.00474552 0)
  (-0.139783 0.00347086 0)
  (-0.147175 0.00158578 0)
  (-0.151563 -0.00083643 0)
  (-0.152103 -0.0038095 0)
  (-0.147894 -0.00745225 0)
  (-0.137761 -0.0118586 0)
  (-0.120282 -0.0171155 0)
  (-0.0951064 -0.0238253 0)
  (-0.0684837 -0.033122 0)
  (-0.0635362 -0.0433389 0)
  (0.0224821 0.0105015 0)
  (-0.0298566 -0.00607499 0)
  (-0.0196664 -0.0089225 0)
  (-0.0103813 -0.00504868 0)
  (-0.00867196 8.5249e-05 0)
  (-0.0164187 0.00454248 0)
  (-0.024266 0.00312375 0)
  (-0.0275899 0.000935779 0)
  (-0.0282144 -0.000157663 0)
  (-0.027186 -0.00102512 0)
  (-0.0245978 -0.00206963 0)
  (-0.0209369 -0.0032449 0)
  (-0.017999 -0.00400573 0)
  (-0.0168206 -0.00432039 0)
  (-0.0135578 -0.00630892 0)
  (-0.0043953 -0.0134685 0)
  (0.0103591 -0.0240548 0)
  (0.0304828 -0.0171434 0)
  (-0.0103667 0.00676685 0)
  (0.30267 0.143394 0)
  (-0.158912 0.0137656 0)
  (-0.101965 0.014307 0)
  (-0.118104 0.01645 0)
  (-0.130077 0.0158742 0)
  (-0.140453 0.0135175 0)
  (-0.148574 0.00980628 0)
  (-0.153832 0.00483963 0)
  (-0.155518 -0.00142157 0)
  (-0.15294 -0.00905343 0)
  (-0.145439 -0.0179306 0)
  (-0.132252 -0.0278348 0)
  (-0.113267 -0.0390494 0)
  (-0.0902897 -0.0522403 0)
  (-0.0672931 -0.0654738 0)
  (-0.0464029 -0.0716063 0)
  (0.0379921 0.00845383 0)
  (0.111648 0.0189705 0)
  (0.00534365 0.00819199 0)
  (-0.0168986 -0.000174469 0)
  (-0.0169864 0.00209459 0)
  (-0.0160479 0.0069293 0)
  (-0.0154879 0.0107549 0)
  (-0.0181729 0.00749252 0)
  (-0.0199241 0.00330995 0)
  (-0.0197328 0.00124788 0)
  (-0.019079 -0.000494018 0)
  (-0.0177795 -0.00227477 0)
  (-0.0160871 -0.00340134 0)
  (-0.0161352 -0.00206593 0)
  (-0.0190689 0.000719449 0)
  (-0.0192058 -0.00325783 0)
  (-0.0103474 -0.0179087 0)
  (-0.00573207 -0.0241643 0)
  (0.00721968 -0.0112677 0)
  (-0.0994036 0.0346555 0)
  (0.468068 0.219449 0)
  (-0.204164 0.0398304 0)
  (-0.085922 0.0311185 0)
  (-0.110091 0.0292003 0)
  (-0.123048 0.0267317 0)
  (-0.134119 0.0222886 0)
  (-0.143117 0.0159489 0)
  (-0.149671 0.00776273 0)
  (-0.153232 -0.00224797 0)
  (-0.153065 -0.0139594 0)
  (-0.149273 -0.0272312 0)
  (-0.141914 -0.0415123 0)
  (-0.131603 -0.0562997 0)
  (-0.119555 -0.0705994 0)
  (-0.107461 -0.0810335 0)
  (-0.0989412 -0.0816211 0)
  (-0.102424 -0.0701176 0)
  (0.0413562 0.0394476 0)
  (-0.054577 0.0180502 0)
  (-0.0543515 0.0100064 0)
  (-0.0530988 0.00300405 0)
  (-0.0482045 -0.000621349 0)
  (-0.0376778 -0.00209353 0)
  (-0.00914975 0.00411976 0)
  (-0.0117416 -0.00354196 0)
  (-0.0115041 -0.00658314 0)
  (-0.0130471 -0.00837975 0)
  (-0.016069 -0.0094177 0)
  (-0.020025 -0.00884346 0)
  (-0.0259638 -0.00628657 0)
  (-0.0324966 -0.0048089 0)
  (-0.0314939 -0.0096733 0)
  (-0.0156006 -0.0196643 0)
  (-0.0259618 -0.0124942 0)
  (-0.0540746 -0.00359372 0)
  (-0.14087 0.00614797 0)
  (0.60088 0.282759 0)
  (-0.249079 0.0714004 0)
  (-0.0647625 0.0497392 0)
  (-0.0973447 0.0430668 0)
  (-0.110361 0.0387066 0)
  (-0.120872 0.0325567 0)
  (-0.129685 0.0242694 0)
  (-0.136592 0.013706 0)
  (-0.141219 0.000850672 0)
  (-0.142868 -0.0139535 0)
  (-0.14204 -0.0298998 0)
  (-0.139926 -0.0459201 0)
  (-0.137983 -0.0608939 0)
  (-0.137887 -0.0731384 0)
  (-0.141737 -0.0791407 0)
  (-0.15332 -0.0723348 0)
  (-0.172661 -0.0409295 0)
  (-0.168188 0.0268626 0)
  (-0.117215 0.0320507 0)
  (-0.119857 0.0182361 0)
  (-0.110503 0.00659237 0)
  (-0.109859 -0.00265224 0)
  (-0.108847 -0.00940401 0)
  (-0.107944 -0.0138276 0)
  (-0.102279 -0.0123041 0)
  (-0.0900485 -0.0126832 0)
  (-0.0766945 -0.0142339 0)
  (-0.0621635 -0.015602 0)
  (-0.0471 -0.0165619 0)
  (-0.0323955 -0.0170046 0)
  (-0.0185527 -0.0168555 0)
  (-0.00329858 -0.0157168 0)
  (0.0105995 -0.0157853 0)
  (0.00951398 -0.0194004 0)
  (0.0131454 -0.0100825 0)
  (0.0259948 -0.00581803 0)
  (-0.0735061 -0.00850511 0)
  (0.705294 0.335104 0)
  (-0.287034 0.105192 0)
  (-0.0425953 0.0666134 0)
  (-0.0803484 0.0558105 0)
  (-0.0927216 0.0493481 0)
  (-0.100991 0.0414799 0)
  (-0.107653 0.031554 0)
  (-0.112757 0.0192033 0)
  (-0.116109 0.00430016 0)
  (-0.117028 -0.0126327 0)
  (-0.116247 -0.0298599 0)
  (-0.115628 -0.0456145 0)
  (-0.116738 -0.0588503 0)
  (-0.120797 -0.0686777 0)
  (-0.128519 -0.0737637 0)
  (-0.139481 -0.0717931 0)
  (-0.14913 -0.0579675 0)
  (-0.149941 -0.0272493 0)
  (-0.137753 0.00141036 0)
  (-0.122109 0.00864858 0)
  (-0.109969 0.00359578 0)
  (-0.103735 -0.00292691 0)
  (-0.100548 -0.00883087 0)
  (-0.0982344 -0.0128747 0)
  (-0.0943016 -0.0144828 0)
  (-0.0880801 -0.0167889 0)
  (-0.0806749 -0.0189921 0)
  (-0.0726605 -0.0205185 0)
  (-0.0645759 -0.0209764 0)
  (-0.0569961 -0.0203123 0)
  (-0.0502139 -0.0188602 0)
  (-0.0439741 -0.0172127 0)
  (-0.0384154 -0.016574 0)
  (-0.0331254 -0.0188008 0)
  (-0.0231411 -0.0196168 0)
  (-0.00059282 -0.0210925 0)
  (0.0212937 -0.022271 0)
  (0.063629 -0.00783808 0)
  (0.171844 0.0511017 0)
  (-0.418655 -0.0114486 0)
  (0.772113 0.382131 0)
  (-0.317659 0.136006 0)
  (-0.0263091 0.0754735 0)
  (-0.0576516 0.0668153 0)
  (-0.0698177 0.0580217 0)
  (-0.0753147 0.0475651 0)
  (-0.0783012 0.035837 0)
  (-0.0797299 0.0220368 0)
  (-0.0796993 0.00554773 0)
  (-0.0770474 -0.0130204 0)
  (-0.0744016 -0.0306488 0)
  (-0.0733519 -0.0449047 0)
  (-0.0750699 -0.0552889 0)
  (-0.0800746 -0.0616434 0)
  (-0.0881701 -0.0632496 0)
  (-0.0978921 -0.0585945 0)
  (-0.105411 -0.0462038 0)
  (-0.106517 -0.028233 0)
  (-0.100402 -0.0121128 0)
  (-0.0913581 -0.00484391 0)
  (-0.0840108 -0.00466697 0)
  (-0.0800972 -0.00756105 0)
  (-0.0786922 -0.0114856 0)
  (-0.0785914 -0.0151069 0)
  (-0.07852 -0.0180232 0)
  (-0.0779886 -0.0209669 0)
  (-0.0772378 -0.0235157 0)
  (-0.0765931 -0.0249673 0)
  (-0.0764069 -0.0248589 0)
  (-0.0769947 -0.0232532 0)
  (-0.078433 -0.0208658 0)
  (-0.0804559 -0.0190175 0)
  (-0.0825602 -0.0194878 0)
  (-0.0834824 -0.0238477 0)
  (-0.0799008 -0.0326408 0)
  (-0.0683015 -0.0477704 0)
  (-0.0494513 -0.0678028 0)
  (-0.0226342 -0.0744127 0)
  (0.127971 0.034795 0)
  (0.00337829 0.0768183 0)
  (0.790278 0.425511 0)
  (-0.331079 0.137912 0)
  (-0.00936101 0.0513203 0)
  (-0.0132015 0.0751908 0)
  (-0.0310294 0.0689158 0)
  (-0.0379664 0.050369 0)
  (-0.0374969 0.0350738 0)
  (-0.0346127 0.0198814 0)
  (-0.029997 0.00168347 0)
  (-0.0217466 -0.0180705 0)
  (-0.0178793 -0.0340864 0)
  (-0.0172782 -0.0452209 0)
  (-0.0201651 -0.0520712 0)
  (-0.026366 -0.0553756 0)
  (-0.0351239 -0.0551327 0)
  (-0.0447527 -0.0504722 0)
  (-0.0524653 -0.0407709 0)
  (-0.0557097 -0.0280623 0)
  (-0.0541655 -0.0166605 0)
  (-0.0502823 -0.0101709 0)
  (-0.0469378 -0.00813987 0)
  (-0.0455081 -0.00873675 0)
  (-0.0460734 -0.0106908 0)
  (-0.0482695 -0.0131264 0)
  (-0.0516155 -0.0156891 0)
  (-0.0558982 -0.0182933 0)
  (-0.0611448 -0.0203706 0)
  (-0.0674251 -0.0211513 0)
  (-0.074876 -0.0201572 0)
  (-0.0836845 -0.017614 0)
  (-0.0938989 -0.0145886 0)
  (-0.105408 -0.0127674 0)
  (-0.117599 -0.0140191 0)
  (-0.129634 -0.0202277 0)
  (-0.140495 -0.0333534 0)
  (-0.148616 -0.0551937 0)
  (-0.150881 -0.0830022 0)
  (-0.142002 -0.0996515 0)
  (-0.124364 -0.0610789 0)
  (-0.108647 0.185283 0)
  (0.889891 0.448638 0)
  (-0.137002 0.116965 0)
  (0.0666063 -0.0145716 0)
  (0.102606 0.039119 0)
  (0.0673052 0.0540358 0)
  (0.0436972 0.0346972 0)
  (0.0398703 0.0169593 0)
  (0.0418784 0.00250111 0)
  (0.0487941 -0.0135831 0)
  (0.0541216 -0.027334 0)
  (0.0542707 -0.0375301 0)
  (0.0507734 -0.0439714 0)
  (0.0444801 -0.0471022 0)
  (0.0358884 -0.0475356 0)
  (0.0255851 -0.045663 0)
  (0.0147019 -0.0413649 0)
  (0.00516609 -0.0343374 0)
  (-0.00108994 -0.0254651 0)
  (-0.00349363 -0.0173647 0)
  (-0.00364456 -0.011928 0)
  (-0.00342301 -0.00915405 0)
  (-0.00396473 -0.00825383 0)
  (-0.00571447 -0.00849888 0)
  (-0.00879792 -0.00932995 0)
  (-0.0132512 -0.0104416 0)
  (-0.0191933 -0.0115854 0)
  (-0.0267089 -0.0122183 0)
  (-0.0356787 -0.0115968 0)
  (-0.0458606 -0.00915538 0)
  (-0.0571016 -0.00490887 0)
  (-0.0690305 0.000531138 0)
  (-0.0837385 0.00514411 0)
  (-0.103001 0.00583159 0)
  (-0.128024 -0.000731386 0)
  (-0.158649 -0.0165374 0)
  (-0.191583 -0.0404367 0)
  (-0.22558 -0.0694871 0)
  (-0.258936 -0.0966107 0)
  (-0.327574 -0.108576 0)
  (-0.596217 -0.080783 0)
  (1.0259 0.419723 0)
  (0.489111 0.269066 0)
  (0.449506 0.19097 0)
  (0.417875 0.178136 0)
  (0.317773 0.145614 0)
  (0.249264 0.101135 0)
  (0.214899 0.0627404 0)
  (0.194315 0.0327387 0)
  (0.177537 0.00845552 0)
  (0.158983 -0.0110416 0)
  (0.14227 -0.0244686 0)
  (0.127194 -0.0323244 0)
  (0.11318 -0.0357597 0)
  (0.099839 -0.0359154 0)
  (0.0869866 -0.0336987 0)
  (0.0747571 -0.0297791 0)
  (0.0638285 -0.0246814 0)
  (0.0552061 -0.0190857 0)
  (0.0493709 -0.0139633 0)
  (0.0456953 -0.0100976 0)
  (0.0430909 -0.00762394 0)
  (0.040712 -0.00625502 0)
  (0.0380769 -0.00560445 0)
  (0.0349318 -0.00532014 0)
  (0.0311283 -0.00515495 0)
  (0.0265418 -0.00492171 0)
  (0.0211312 -0.00435204 0)
  (0.0150815 -0.00303299 0)
  (0.00912913 -0.000402311 0)
  (0.00416827 0.00398328 0)
  (-0.000958983 0.0101117 0)
  (-0.00513932 0.017056 0)
  (-0.0085661 0.0227336 0)
  (-0.0115023 0.0242859 0)
  (-0.0137099 0.0189388 0)
  (-0.0211131 0.00497092 0)
  (-0.0277049 -0.0145692 0)
  (-0.0133066 -0.0477491 0)
  (-0.00162331 -0.138206 0)
  (-0.495515 -0.254319 0)
  (-0.879873 0.116125 0)
  (0.220464 0.177415 0)
  (0.194121 0.144483 0)
  (0.191613 0.10641 0)
  (0.202129 0.0713168 0)
  (0.206481 0.0420578 0)
  (0.203651 0.0197012 0)
  (0.196414 0.00366841 0)
  (0.185969 -0.00772013 0)
  (0.173847 -0.0151459 0)
  (0.160924 -0.0191528 0)
  (0.14796 -0.0202913 0)
  (0.135543 -0.0191415 0)
  (0.124066 -0.0163228 0)
  (0.113842 -0.0124925 0)
  (0.105191 -0.00834866 0)
  (0.0983032 -0.0045801 0)
  (0.0930006 -0.00166105 0)
  (0.0887967 0.000296179 0)
  (0.0852114 0.00142346 0)
  (0.0819138 0.00197935 0)
  (0.0787083 0.00223895 0)
  (0.0754985 0.00242551 0)
  (0.0722611 0.00269732 0)
  (0.0690782 0.00319299 0)
  (0.0660288 0.00415259 0)
  (0.0631992 0.00585732 0)
  (0.0609937 0.00870032 0)
  (0.0601141 0.0126761 0)
  (0.0612259 0.0169206 0)
  (0.0643107 0.019639 0)
  (0.0686427 0.0183966 0)
  (0.0732062 0.0113198 0)
  (0.0765231 -0.00192056 0)
  (0.0772034 -0.0181384 0)
  (0.0822139 -0.0366372 0)
  (0.135324 -0.0879669 0)
  (-0.147043 -0.194245 0)
  (-0.462314 0.169443 0)
  (0.19279 0.094503 0)
  (0.107164 0.0787686 0)
  (0.130194 0.0710293 0)
  (0.163713 0.0501078 0)
  (0.184984 0.0276887 0)
  (0.194561 0.00937798 0)
  (0.196495 -0.00436055 0)
  (0.193365 -0.0141444 0)
  (0.186643 -0.0204883 0)
  (0.177793 -0.0243154 0)
  (0.168076 -0.0263141 0)
  (0.158506 -0.0270813 0)
  (0.149803 -0.0271543 0)
  (0.14238 -0.0269971 0)
  (0.136347 -0.0269532 0)
  (0.13155 -0.0271784 0)
  (0.127675 -0.0275027 0)
  (0.124405 -0.0275637 0)
  (0.121494 -0.0274026 0)
  (0.118801 -0.0269916 0)
  (0.116269 -0.0262791 0)
  (0.113901 -0.0252038 0)
  (0.111748 -0.0236784 0)
  (0.109835 -0.021544 0)
  (0.108374 -0.0186934 0)
  (0.107681 -0.0150551 0)
  (0.108198 -0.0106628 0)
  (0.110416 -0.00584394 0)
  (0.114639 -0.00138275 0)
  (0.120592 0.00143798 0)
  (0.127171 0.00103499 0)
  (0.132623 -0.00385456 0)
  (0.134536 -0.0130066 0)
  (0.129993 -0.0254738 0)
  (0.117402 -0.0422017 0)
  (0.143208 -0.0746577 0)
  (-0.192311 -0.13131 0)
  (0.113426 -0.186392 0)
  (-0.218551 -0.0350755 0)
  (-0.265397 0.162338 0)
  (0.117054 0.0173629 0)
  (0.00558517 0.0469618 0)
  (0.0668893 0.0601658 0)
  (0.116179 0.0538954 0)
  (0.149985 0.0462732 0)
  (0.168943 0.041879 0)
  (0.176663 0.040868 0)
  (0.177047 0.0420915 0)
  (0.173082 0.0443019 0)
  (0.166675 0.0474998 0)
  (0.159242 0.0516876 0)
  (0.151877 0.056771 0)
  (0.145403 0.0625266 0)
  (0.140341 0.0685869 0)
  (0.136902 0.0744637 0)
  (0.135006 0.0796337 0)
  (0.13436 0.0835124 0)
  (0.134588 0.085606 0)
  (0.135371 0.0862163 0)
  (0.13645 0.0856346 0)
  (0.137679 0.0840844 0)
  (0.139013 0.081704 0)
  (0.1405 0.0785346 0)
  (0.142271 0.0745454 0)
  (0.14455 0.0697465 0)
  (0.14763 0.0642302 0)
  (0.151858 0.0582013 0)
  (0.15755 0.051953 0)
  (0.16478 0.0457816 0)
  (0.173069 0.0398429 0)
  (0.181088 0.0340555 0)
  (0.186784 0.0281918 0)
  (0.186941 0.0214015 0)
  (0.178306 0.0126596 0)
  (0.157994 0.00142165 0)
  (0.166877 -0.0170877 0)
  (-0.212164 -0.0541402 0)
)
;

boundaryField
{
  floor
  {
    type noSlip;
  }
  ceiling
  {
    type noSlip;
  }
  sWall
  {
    type noSlip;
  }
  nWall
  {
    type noSlip;
  }
  sideWalls
  {
    type empty;
  }
  glass1
  {
    type noSlip;
  }
  glass2
  {
    type noSlip;
  }
  sun
  {
    type noSlip;
  }
  heatsource1
  {
    type noSlip;
  }
  heatsource2
  {
    type noSlip;
  }
  Table_master
  {
    type noSlip;
  }
  Table_slave
  {
    type noSlip;
  }
  inlet
  {
    type fixedValue;
    value uniform (0.277164 -0.114805 0);
  }
  outlet
  {
    type zeroGradient;
  }
} 	// ************************************************************************* //

