/*--------------------------------*- C++ -*----------------------------------*\
  =========                 |
  \\      /  F ield         | OpenFOAM: The Open Source CFD Toolbox
   \\    /   O peration     | Website:  https://openfoam.org
    \\  /    A nd           | Version:  6
     \\/     M anipulation  |
\*---------------------------------------------------------------------------*/
FoamFile
{
    version     2.0;
    format      ascii;
    class       volScalarField;
    location    "110";
    object      alphat;
}
// * * * * * * * * * * * * * * * * * * * * * * * * * * * * * * * * * * * * * //

dimensions      [1 -1 -1 0 0 0 0];

internalField   nonuniform List<scalar> 
459
(
0.0017012
0.00194124
0.00209143
0.00188915
0.00148425
0.00131256
0.00116592
0.00102947
0.000948148
0.000882433
0.000823596
0.000774971
0.000733302
0.000696852
0.000667465
0.000593348
0.000704978
0.000653236
0.000550178
0.000485934
0.000432943
0.000380189
0.000331661
0.000306223
0.000292104
0.000283688
0.000276354
0.000269372
0.00026201
0.000266489
0.000418846
0.000596612
0.000610145
0.000537362
0.00169294
0.00298821
0.00390345
0.00483965
0.00501823
0.00478163
0.00461962
0.00437373
0.00363516
0.0034362
0.00347188
0.00331561
0.00293242
0.0023944
0.00168084
0.000671885
0.000519324
0.000690065
0.00169269
0.00170037
0.00152774
0.00123406
0.000956239
0.000650383
0.000614545
0.000628856
0.000636945
0.000604405
0.000566685
0.00054504
0.000577439
0.000619955
0.000993387
0.00150106
0.00162832
0.000650005
0.00271464
0.00346792
0.00376641
0.00402279
0.00440514
0.0047388
0.00502463
0.00527572
0.00504751
0.00439048
0.00431606
0.00423671
0.0036799
0.00288886
0.00204197
0.00130263
0.000707033
0.000946113
0.00241523
0.00194815
0.00151182
0.00117762
0.000928857
0.000389532
0.000317249
0.000293057
0.000275734
0.000262308
0.000252263
0.000259928
0.000324832
0.000509349
0.00141991
0.00196688
0.0014837
0.00071674
0.00377908
0.00459136
0.00450693
0.00434255
0.00432841
0.00454266
0.00492788
0.00543336
0.00578178
0.00549385
0.00511723
0.00515592
0.00462165
0.00367497
0.00262477
0.00171953
0.00117056
0.00100781
0.0018771
0.00178582
0.00152139
0.00130288
0.00115143
0.000985967
0.000841016
0.000876278
0.00092134
0.000975933
0.00104088
0.00111866
0.00122572
0.00126907
0.00126536
0.00156505
0.00186957
0.0021935
0.00111898
0.00404498
0.00556875
0.00510195
0.00462383
0.00440823
0.00450843
0.00489879
0.00553491
0.00615657
0.00619332
0.00606091
0.00632266
0.0062713
0.00580361
0.00518388
0.00449346
0.00383303
0.00330985
0.00295897
0.00296675
0.00297512
0.0029983
0.0029828
0.00296693
0.00297935
0.00306521
0.00321581
0.00342651
0.0036855
0.00397647
0.00427474
0.00443769
0.00441676
0.00423684
0.00371774
0.00317856
0.00223111
0.00113407
0.000987553
0.00110663
0.00424648
0.0060031
0.0050216
0.00441835
0.00428707
0.00443715
0.0048982
0.00565563
0.00642911
0.0066274
0.00662651
0.00718974
0.0075163
0.00745151
0.00723938
0.0069201
0.00648437
0.00597604
0.00546655
0.005037
0.00473623
0.00449527
0.00427259
0.00406599
0.0038874
0.00377532
0.00375996
0.00384656
0.00402115
0.00425885
0.00453217
0.00475377
0.00483612
0.00481485
0.00460537
0.00406578
0.00332236
0.00235036
0.00214035
0.00118932
0.00446237
0.00564488
0.00397472
0.00413738
0.00422056
0.00446291
0.0049888
0.00580848
0.00659366
0.00683162
0.00689737
0.00757289
0.00814402
0.00831303
0.00832433
0.00822467
0.00799187
0.00763518
0.00719733
0.00673326
0.00628655
0.00587176
0.00547634
0.00508105
0.00468586
0.00433451
0.00409282
0.00400379
0.00406778
0.00425032
0.00450664
0.00473756
0.00486333
0.0049509
0.00515187
0.00498386
0.00440483
0.00369367
0.00300564
0.00147334
0.00474851
0.00529526
0.00409778
0.00386874
0.00443739
0.00475481
0.00525134
0.0060106
0.00671273
0.00694959
0.00701779
0.0075891
0.00819482
0.00848002
0.0086062
0.00862977
0.00853412
0.00831209
0.00798373
0.00758942
0.00717412
0.00676462
0.00636267
0.00595481
0.00552858
0.00509122
0.00468519
0.0043876
0.0042781
0.00433726
0.00454452
0.00477368
0.00488507
0.00496375
0.00528408
0.00581702
0.00597956
0.00541619
0.00486751
0.00166539
0.00522778
0.00606586
0.0074375
0.00395344
0.0047947
0.00549703
0.00580173
0.00637053
0.006926
0.00711353
0.007041
0.00725578
0.00764057
0.00791973
0.00807701
0.00815179
0.00813907
0.00802593
0.0078148
0.00752876
0.00720343
0.00686967
0.0065427
0.00622702
0.00592815
0.00565653
0.0053964
0.00503641
0.00473859
0.00453422
0.00456774
0.00477136
0.00475489
0.00429809
0.00368463
0.00323727
0.00289426
0.00259426
0.00231128
0.00164876
0.0119135
0.0060956
0.00466982
0.00646267
0.00663907
0.00694566
0.00728373
0.00721379
0.00690213
0.00674765
0.00674781
0.00677309
0.00679507
0.00681398
0.00681341
0.00677045
0.00667032
0.00651455
0.00631905
0.00610474
0.00588969
0.00568974
0.00552557
0.00542831
0.00542373
0.00547824
0.00543803
0.00501052
0.00448583
0.00476853
0.00571736
0.00642665
0.00632103
0.0056326
0.00484146
0.00421264
0.00371402
0.00159322
0.00508566
0.00374247
0.00627211
0.00667855
0.00681302
0.00694674
0.00693599
0.00645607
0.00593877
0.00554592
0.00527336
0.00503398
0.00484005
0.00471171
0.00464183
0.00460925
0.0045893
0.00456264
0.0045201
0.00446217
0.00439552
0.00433145
0.00428828
0.00429606
0.00438954
0.00455997
0.00464436
0.00442942
0.00375141
0.0032306
0.00403424
0.00540332
0.00570039
0.00563712
0.0053719
0.00503
0.00398076
0.00163303
0.00255174
0.0029996
0.00348655
0.00183783
0.00185418
0.0019918
0.00203423
0.00201914
0.00191477
0.00178427
0.00166414
0.00155922
0.00146736
0.0013891
0.00132221
0.00126445
0.00121464
0.00117193
0.00113545
0.00110417
0.00107708
0.0010533
0.00103226
0.00101378
0.0009982
0.000986645
0.000980945
0.000982061
0.000990061
0.000985884
0.000953511
0.000932085
0.00101887
0.00126512
0.00154114
0.00170705
0.00175938
0.00169412
0.00159065
0.00145256
)
;

boundaryField
{
    floor
    {
        type            compressible::alphatWallFunction;
        Prt             0.85;
        value           nonuniform List<scalar> 
29
(
9.43694e-05
8.33454e-05
9.99183e-05
9.22506e-05
7.68328e-05
6.7048e-05
5.88509e-05
5.05609e-05
4.28046e-05
3.86726e-05
3.63572e-05
3.49683e-05
3.37547e-05
3.25948e-05
3.13679e-05
3.21065e-05
5.65891e-05
8.3814e-05
8.58491e-05
7.48859e-05
7.4885e-05
9.17593e-05
0.000101626
0.000158858
9.43683e-05
8.33444e-05
9.76862e-05
0.000134636
0.000143349
)
;
    }
    ceiling
    {
        type            compressible::alphatWallFunction;
        Prt             0.85;
        value           nonuniform List<scalar> 
43
(
0.000348118
0.000404453
0.000464717
0.000256027
0.00025819
0.00027619
0.000281719
0.000279761
0.000266135
0.000248977
0.00023306
0.000219057
0.000206711
0.000196124
0.000187024
0.000179126
0.000172282
0.000166389
0.000161336
0.000156989
0.000153212
0.000149886
0.000146937
0.00014434
0.000142145
0.000140515
0.000139709
0.000139861
0.000140976
0.000140346
0.000135749
0.000132722
0.000145104
0.00017942
0.00021672
0.000238739
0.000245626
0.00023698
0.000223194
0.000204657
0.000674143
0.000772244
0.000657253
)
;
    }
    sWall
    {
        type            compressible::alphatWallFunction;
        Prt             0.85;
        value           uniform 0.000346994;
    }
    nWall
    {
        type            compressible::alphatWallFunction;
        Prt             0.85;
        value           nonuniform List<scalar> 6(0.000156917 0.000168363 0.000207091 0.000223125 0.000228432 0.000204284);
    }
    sideWalls
    {
        type            empty;
    }
    glass1
    {
        type            compressible::alphatWallFunction;
        Prt             0.85;
        value           nonuniform List<scalar> 9(0.000232856 0.000231906 0.000362445 0.000493186 0.000525156 0.000549232 0.000574901 0.000608761 0.000665119);
    }
    glass2
    {
        type            compressible::alphatWallFunction;
        Prt             0.85;
        value           nonuniform List<scalar> 2(0.000231087 0.000228891);
    }
    sun
    {
        type            compressible::alphatWallFunction;
        Prt             0.85;
        value           nonuniform List<scalar> 
14
(
0.0002379
0.000269482
0.000289033
0.000262673
0.000208915
0.000185637
0.00016547
0.000146439
0.000134959
0.000125602
0.000117154
0.000110118
0.000104048
9.87035e-05
)
;
    }
    heatsource1
    {
        type            compressible::alphatWallFunction;
        Prt             0.85;
        value           nonuniform List<scalar> 3(0.000161133 0.000140645 0.000157346);
    }
    heatsource2
    {
        type            compressible::alphatWallFunction;
        Prt             0.85;
        value           nonuniform List<scalar> 4(9.51862e-05 7.23144e-05 7.23135e-05 0.000100347);
    }
    Table_master
    {
        type            compressible::alphatWallFunction;
        Prt             0.85;
        value           nonuniform List<scalar> 9(5.21749e-05 4.05975e-05 3.66497e-05 3.37927e-05 3.15621e-05 2.98836e-05 3.11591e-05 4.18001e-05 7.07513e-05);
    }
    Table_slave
    {
        type            compressible::alphatWallFunction;
        Prt             0.85;
        value           nonuniform List<scalar> 9(0.000119801 0.000124856 0.000131282 0.000139017 0.000148154 0.000159012 0.000173808 0.000179753 0.000179237);
    }
    inlet
    {
        type            fixedValue;
        value           uniform 1.94e-05;
    }
    outlet
    {
        type            zeroGradient;
    }
}


// ************************************************************************* //
