/*--------------------------------*- C++ -*----------------------------------*\
  =========                 |
  \\      /  F ield         | OpenFOAM: The Open Source CFD Toolbox
   \\    /   O peration     | Website:  https://openfoam.org
    \\  /    A nd           | Version:  6
     \\/     M anipulation  |
\*---------------------------------------------------------------------------*/
FoamFile
{
    version     2.0;
    format      ascii;
    class       volScalarField;
    location    "110";
    object      epsilon;
}
// * * * * * * * * * * * * * * * * * * * * * * * * * * * * * * * * * * * * * //

dimensions      [0 2 -3 0 0 0 0];

internalField   nonuniform List<scalar> 
459
(
0.00111942
0.00166088
0.00207578
0.00152487
0.000735709
0.000507576
0.000355243
0.000244305
0.000190766
0.000153736
0.000124954
0.000104079
8.81616e-05
7.56462e-05
6.64673e-05
4.66641e-05
7.831e-05
6.22137e-05
3.71846e-05
2.56346e-05
1.81353e-05
1.22839e-05
8.15767e-06
6.41765e-06
5.56707e-06
5.09669e-06
4.70967e-06
4.35996e-06
4.01107e-06
4.21779e-06
1.63405e-05
4.73286e-05
5.06453e-05
3.45926e-05
0.00110639
0.00297453
0.00381228
0.00424662
0.00370895
0.00284195
0.00200645
0.000892788
0.000325066
0.000158493
9.65667e-05
7.50252e-05
6.88311e-05
6.59689e-05
6.18702e-05
6.77573e-05
3.12844e-05
7.33461e-05
0.000137523
7.77009e-05
4.0475e-05
3.0546e-05
2.02063e-05
1.03929e-05
7.22187e-06
5.92134e-06
5.16551e-06
4.54151e-06
4.0438e-06
3.75616e-06
4.21379e-06
1.03311e-05
5.04108e-05
9.45355e-05
0.000109916
6.11925e-05
0.00456881
0.00565592
0.00503257
0.00432591
0.00375998
0.00319399
0.00261277
0.00202166
0.0011732
0.000346729
0.00014123
8.75473e-05
7.61086e-05
7.63381e-05
7.81523e-05
8.03883e-05
7.892e-05
0.000189144
0.000197088
8.14073e-05
6.21085e-05
5.68585e-05
5.45021e-05
1.31836e-05
7.11927e-06
5.61107e-06
4.67208e-06
4.02132e-06
3.57642e-06
3.90993e-06
7.61847e-06
2.93837e-05
0.000145289
0.000203308
0.000169172
8.21738e-05
0.0123134
0.01068
0.00765955
0.00553659
0.00412448
0.00325304
0.00266185
0.00218722
0.00163231
0.000720234
0.000236092
0.000116056
8.97818e-05
8.75214e-05
9.43294e-05
0.00011281
0.000153983
0.000228743
0.000168174
7.69537e-05
6.01901e-05
6.47484e-05
7.68044e-05
9.76677e-05
0.000132963
0.000150399
0.000174814
0.000207763
0.000252059
0.000312894
0.000411486
0.000456605
0.000452483
0.000318572
0.000276786
0.000324566
0.000312611
0.0150779
0.0142057
0.00827024
0.0050999
0.00361638
0.00285813
0.00240347
0.00206929
0.00167379
0.000866661
0.0003261
0.000150197
0.000107039
9.7398e-05
9.35378e-05
8.94396e-05
8.58034e-05
8.02309e-05
6.257e-05
5.18971e-05
5.06028e-05
5.53281e-05
6.2717e-05
7.17891e-05
8.25406e-05
9.63904e-05
0.000117274
0.000148119
0.000192236
0.000253039
0.000336782
0.000398762
0.000411222
0.000363237
0.000285992
0.000255812
0.000253223
0.000325413
0.000214919
0.000302746
0.0174235
0.0173888
0.00762936
0.00378607
0.00268593
0.00226539
0.00202137
0.00183377
0.00155343
0.000850547
0.000345989
0.000171285
0.000127759
0.000122579
0.000123692
0.000120485
0.000110339
9.57465e-05
8.07193e-05
6.98935e-05
6.54609e-05
6.58146e-05
6.87501e-05
7.34439e-05
8.06125e-05
9.31242e-05
0.000115188
0.000151555
0.000207217
0.000285272
0.000383662
0.000486152
0.000551757
0.00055899
0.000449645
0.000328741
0.000268072
0.000255932
0.000319564
0.000375622
0.0201908
0.0205203
0.0072383
0.00232032
0.00191878
0.00178823
0.00168511
0.00158559
0.00136516
0.000783232
0.000341256
0.000180361
0.000144126
0.000146527
0.000155724
0.00015987
0.000154907
0.000141885
0.00012491
0.000108741
9.69423e-05
9.02698e-05
8.73372e-05
8.68398e-05
8.94784e-05
9.89243e-05
0.000121183
0.000163862
0.000234435
0.000337558
0.000469543
0.000611246
0.000734946
0.000832264
0.000917009
0.000733718
0.000667624
0.000655385
0.000780931
0.000714575
0.0242924
0.0267056
0.0159895
0.00222763
0.00152418
0.0015057
0.0014507
0.00137547
0.00118201
0.000707683
0.000337147
0.000195284
0.000164589
0.000171396
0.000185701
0.000195349
0.000195635
0.000186221
0.000170026
0.000151624
0.000135259
0.000123136
0.000115066
0.000110117
0.000108691
0.00011454
0.000135857
0.000184989
0.000271564
0.00040198
0.000577112
0.000779523
0.000980938
0.00120081
0.00156035
0.00214642
0.00274081
0.00332143
0.0058324
0.00103578
0.0323641
0.0503961
0.0625345
0.00979945
0.00170426
0.00146734
0.00134363
0.00124011
0.0010549
0.000655498
0.000363428
0.000244185
0.00020937
0.000209332
0.000219472
0.000227987
0.000229522
0.000222578
0.000208645
0.000191149
0.000173764
0.000158941
0.000147518
0.000139571
0.000135627
0.000138129
0.000154229
0.00020689
0.000303464
0.000447465
0.000651524
0.000909231
0.00113935
0.00123379
0.00123764
0.00129734
0.00141534
0.00156099
0.00168978
0.00100539
0.14898
0.0373493
0.00325055
0.00165259
0.00137087
0.00121713
0.00101398
0.000671
0.000450027
0.000343595
0.00029765
0.000280544
0.000275017
0.000272022
0.000266945
0.000257864
0.000244863
0.000229463
0.000213742
0.00019945
0.000187662
0.000179085
0.00017477
0.00017717
0.000191757
0.000230239
0.000299554
0.000385919
0.00050776
0.000793879
0.00135977
0.00207048
0.00248832
0.00249491
0.00225848
0.00196435
0.00141002
0.000904704
0.0296403
0.00402607
0.00195608
0.00155297
0.00142921
0.00131442
0.00107945
0.00079651
0.000615494
0.000509811
0.000446298
0.000403865
0.000372433
0.000347549
0.000327036
0.000309584
0.000294263
0.000280495
0.000268121
0.000257314
0.000248435
0.000242013
0.000238966
0.000240961
0.000250159
0.000267192
0.000284633
0.000287977
0.000271432
0.000322363
0.000622699
0.0010456
0.00140529
0.00173279
0.00184242
0.00169767
0.00128296
0.000974129
0.00374992
0.00608687
0.00955767
0.00140301
0.00144143
0.00178676
0.00190311
0.00185991
0.00158458
0.00128125
0.00103894
0.000854235
0.000711769
0.000603686
0.000520507
0.000455159
0.000403408
0.000362298
0.000329476
0.000302968
0.00028118
0.000262934
0.000247459
0.000234372
0.000223699
0.000215987
0.000212228
0.000212899
0.00021803
0.000215004
0.000194367
0.000181573
0.000237829
0.000456194
0.0008217
0.0011143
0.00121908
0.00108824
0.000900567
0.000686019
)
;

boundaryField
{
    floor
    {
        Cmu             0.09;
        kappa           0.41;
        E               9.8;
        type            epsilonWallFunction;
        value           nonuniform List<scalar> 
29
(
6.64673e-05
4.66641e-05
7.831e-05
6.22137e-05
3.71846e-05
2.56346e-05
1.81353e-05
1.22839e-05
8.15767e-06
6.41765e-06
5.56707e-06
5.09669e-06
4.70967e-06
4.35996e-06
4.01107e-06
4.21779e-06
1.63405e-05
4.73286e-05
5.06453e-05
3.45926e-05
3.45926e-05
6.11925e-05
8.21738e-05
0.000312611
6.64673e-05
4.66641e-05
7.33461e-05
0.000189144
0.000228743
)
;
    }
    ceiling
    {
        Cmu             0.09;
        kappa           0.41;
        E               9.8;
        type            epsilonWallFunction;
        value           nonuniform List<scalar> 
43
(
0.00374992
0.00608687
0.00955767
0.00140301
0.00144143
0.00178676
0.00190311
0.00185991
0.00158458
0.00128125
0.00103894
0.000854235
0.000711769
0.000603686
0.000520507
0.000455159
0.000403408
0.000362298
0.000329476
0.000302968
0.00028118
0.000262934
0.000247459
0.000234372
0.000223699
0.000215987
0.000212228
0.000212899
0.00021803
0.000215004
0.000194367
0.000181573
0.000237829
0.000456194
0.0008217
0.0011143
0.00121908
0.00108824
0.000900567
0.000686019
0.0323641
0.0503961
0.0296403
)
;
    }
    sWall
    {
        Cmu             0.09;
        kappa           0.41;
        E               9.8;
        type            epsilonWallFunction;
        value           uniform 0.00374992;
    }
    nWall
    {
        Cmu             0.09;
        kappa           0.41;
        E               9.8;
        type            epsilonWallFunction;
        value           nonuniform List<scalar> 6(0.000302746 0.000375622 0.000714575 0.000904704 0.000974129 0.000686019);
    }
    sideWalls
    {
        type            empty;
    }
    glass1
    {
        Cmu             0.09;
        kappa           0.41;
        E               9.8;
        type            epsilonWallFunction;
        value           nonuniform List<scalar> 9(0.00111942 0.00110639 0.00456881 0.0123134 0.0150779 0.0174235 0.0201908 0.0242924 0.0323641);
    }
    glass2
    {
        Cmu             0.09;
        kappa           0.41;
        E               9.8;
        type            epsilonWallFunction;
        value           nonuniform List<scalar> 2(0.00103578 0.00100539);
    }
    sun
    {
        Cmu             0.09;
        kappa           0.41;
        E               9.8;
        type            epsilonWallFunction;
        value           nonuniform List<scalar> 
14
(
0.00111942
0.00166088
0.00207578
0.00152487
0.000735709
0.000507576
0.000355243
0.000244305
0.000190766
0.000153736
0.000124954
0.000104079
8.81616e-05
7.56462e-05
)
;
    }
    heatsource1
    {
        Cmu             0.09;
        kappa           0.41;
        E               9.8;
        type            epsilonWallFunction;
        value           nonuniform List<scalar> 3(0.000325413 0.000214919 0.000302746);
    }
    heatsource2
    {
        Cmu             0.09;
        kappa           0.41;
        E               9.8;
        type            epsilonWallFunction;
        value           nonuniform List<scalar> 4(6.77573e-05 3.12844e-05 3.12844e-05 7.892e-05);
    }
    Table_master
    {
        Cmu             0.09;
        kappa           0.41;
        E               9.8;
        type            epsilonWallFunction;
        value           nonuniform List<scalar> 9(1.31836e-05 7.11927e-06 5.61107e-06 4.67208e-06 4.02132e-06 3.57642e-06 3.90993e-06 7.61847e-06 2.93837e-05);
    }
    Table_slave
    {
        Cmu             0.09;
        kappa           0.41;
        E               9.8;
        type            epsilonWallFunction;
        value           nonuniform List<scalar> 9(0.000132963 0.000150399 0.000174814 0.000207763 0.000252059 0.000312894 0.000411486 0.000456605 0.000452483);
    }
    inlet
    {
        type            turbulentMixingLengthDissipationRateInlet;
        mixingLength    0.01;
        phi             phi;
        k               k;
        value           uniform 3.77336e-06;
    }
    outlet
    {
        type            zeroGradient;
    }
}


// ************************************************************************* //
