/*--------------------------------*- C++ -*----------------------------------*\
  =========                 |
  \\      /  F ield         | OpenFOAM: The Open Source CFD Toolbox
   \\    /   O peration     | Website:  https://openfoam.org
    \\  /    A nd           | Version:  6
     \\/     M anipulation  |
\*---------------------------------------------------------------------------*/
FoamFile
{
    version     2.0;
    format      ascii;
    class       volScalarField;
    location    "110";
    object      nut;
}
// * * * * * * * * * * * * * * * * * * * * * * * * * * * * * * * * * * * * * //

dimensions      [0 2 -1 0 0 0 0];

internalField   nonuniform List<scalar> 
459
(
0.001468
0.00167438
0.00180352
0.00162703
0.00127573
0.00112711
0.00100073
0.000883401
0.000813539
0.000757097
0.000706575
0.000664829
0.00062906
0.000597779
0.000572573
0.000508797
0.000604496
0.000560141
0.000471787
0.000416697
0.000371249
0.000325995
0.000284349
0.000262505
0.000250376
0.000243136
0.00023683
0.000230833
0.000224524
0.000228362
0.000358929
0.000511282
0.000522875
0.000460524
0.00146234
0.00258058
0.00337027
0.00417715
0.0043273
0.00411823
0.00397358
0.00375673
0.00312041
0.00294883
0.00297898
0.00284465
0.00251573
0.00205404
0.00144181
0.000576283
0.000445365
0.000591748
0.00145146
0.00145806
0.00131008
0.00105822
0.000819905
0.000557573
0.000526751
0.000538933
0.000545793
0.000517853
0.000485498
0.000466933
0.000494691
0.000531159
0.000851402
0.00128651
0.00139549
0.000557078
0.00234653
0.00299557
0.00325245
0.00347347
0.00380234
0.00408741
0.00432935
0.00454003
0.00433774
0.00376915
0.003704
0.00363539
0.00315736
0.00247847
0.00175174
0.00111738
0.000606433
0.000811426
0.00207135
0.00167079
0.00129661
0.00100997
0.000796555
0.0003339
0.000271869
0.000251102
0.000236234
0.000224714
0.000216097
0.00022266
0.000278276
0.000436445
0.00121749
0.00168604
0.00127178
0.000614351
0.00326469
0.00396291
0.00388915
0.00374732
0.00373522
0.00391915
0.00424865
0.00467958
0.00497331
0.00471885
0.00439253
0.00442486
0.003966
0.0031534
0.00225206
0.00147524
0.00100418
0.000864542
0.00161022
0.00153199
0.00130523
0.00111783
0.000987924
0.000845974
0.000721619
0.000751883
0.000790558
0.00083741
0.000893146
0.000959883
0.00105172
0.00108888
0.00108567
0.0013427
0.00160371
0.00188127
0.000959662
0.00349268
0.00480178
0.00439848
0.0039872
0.00380252
0.00388917
0.00422416
0.00476845
0.00529751
0.00532133
0.0052038
0.00542722
0.00538273
0.00498106
0.00444892
0.00385615
0.0032892
0.00284014
0.00253903
0.00254578
0.00255309
0.00257308
0.00255984
0.00254625
0.00255693
0.00263063
0.00275989
0.00294071
0.00316293
0.00341257
0.0036684
0.00380809
0.00378997
0.00363536
0.00318962
0.00272666
0.00191369
0.000972679
0.000847015
0.00094933
0.00366514
0.00517229
0.00432683
0.00380852
0.00369719
0.00382729
0.00422357
0.00487262
0.00553228
0.00569504
0.0056905
0.00617282
0.00645278
0.00639698
0.00621467
0.00594032
0.00556602
0.0051295
0.00469209
0.00432341
0.00406536
0.00385862
0.00366753
0.00349021
0.00333692
0.00324069
0.00322748
0.00330174
0.00345148
0.00365533
0.00388972
0.00407971
0.00415019
0.00413167
0.0039515
0.0034881
0.00284999
0.00201603
0.0018358
0.00102015
0.00384974
0.00486209
0.00342466
0.00356665
0.00363968
0.00384908
0.00430115
0.00500373
0.00567351
0.0058712
0.0059242
0.00650317
0.00699329
0.00713837
0.00714797
0.00706218
0.00686203
0.00655553
0.00617944
0.00578095
0.00539744
0.00504135
0.00470188
0.00436249
0.00402317
0.00372146
0.00351386
0.00343726
0.00349197
0.0036484
0.00386817
0.00406615
0.00417391
0.00424882
0.00442078
0.00427599
0.0037788
0.00316848
0.00257815
0.00126385
0.00409455
0.00456042
0.00353057
0.00333536
0.00382635
0.00410002
0.00452652
0.00517699
0.00577566
0.00597338
0.0060289
0.0065186
0.00703865
0.00728363
0.007392
0.00741213
0.00732976
0.00713881
0.00685659
0.00651781
0.00616107
0.00580937
0.00546415
0.00511386
0.00474777
0.00437209
0.00402325
0.00376744
0.00367307
0.00372349
0.00390107
0.00409753
0.00419299
0.00426036
0.00453494
0.0049917
0.00513051
0.00464698
0.00417647
0.0014297
0.0045055
0.00522225
0.00640289
0.00340767
0.00413361
0.00473872
0.00499964
0.0054861
0.00595914
0.00611533
0.00605049
0.0062341
0.00656444
0.00680425
0.00693938
0.00700357
0.00699248
0.00689507
0.00671347
0.00646755
0.00618792
0.0059011
0.00562014
0.0053489
0.00509209
0.00485867
0.00463504
0.00432549
0.00406924
0.00389324
0.00392155
0.00409604
0.00408179
0.00368977
0.00316329
0.00277935
0.00248498
0.00222754
0.00198471
0.00141607
0.0102403
0.00525105
0.00402443
0.00556931
0.00571974
0.00598067
0.00626716
0.00620312
0.0059333
0.00579966
0.00579942
0.00582097
0.00583976
0.00585591
0.00585529
0.00581821
0.00573198
0.00559793
0.00542976
0.00524545
0.00506053
0.0048886
0.00474743
0.00466372
0.00465961
0.00470617
0.00467125
0.00430351
0.0038523
0.00409444
0.00490827
0.00551682
0.0054263
0.00483555
0.00415651
0.00361669
0.00318841
0.0013678
0.00437611
0.00322332
0.00540309
0.00575349
0.00586834
0.00598125
0.00596847
0.00555335
0.00510723
0.00476875
0.00453401
0.00432794
0.00416104
0.00405055
0.00399034
0.0039622
0.00394491
0.00392184
0.00388513
0.00383518
0.00377776
0.00372256
0.00368532
0.00369187
0.00377204
0.00391828
0.00399056
0.00380563
0.0032229
0.00277513
0.00346435
0.00463864
0.00489326
0.00483905
0.00461151
0.004318
0.00341714
0.00140192
0.00219678
0.0025818
0.00300098
0.00158266
0.00159688
0.00171545
0.00175186
0.00173841
0.00164798
0.00153532
0.00143174
0.00134134
0.00126221
0.0011948
0.0011372
0.00108746
0.00104457
0.00100779
0.000976373
0.000949439
0.0009261
0.000905612
0.000887485
0.000871558
0.000858128
0.000848157
0.000843219
0.000844138
0.000850973
0.000847343
0.000819488
0.000801008
0.00087533
0.00108636
0.00132303
0.00146534
0.00151023
0.0014542
0.00136537
0.00124697
)
;

boundaryField
{
    floor
    {
        type            nutkWallFunction;
        Cmu             0.09;
        kappa           0.41;
        E               9.8;
        value           nonuniform List<scalar> 
29
(
6.89263e-05
6.08638e-05
7.29485e-05
6.7358e-05
5.61142e-05
4.89762e-05
4.29949e-05
3.6944e-05
3.12805e-05
2.82619e-05
2.65699e-05
2.55542e-05
2.4667e-05
2.38195e-05
2.2924e-05
2.34631e-05
4.1324e-05
6.11749e-05
6.2658e-05
5.4668e-05
5.4668e-05
6.69715e-05
7.41719e-05
0.000115944
6.89263e-05
6.08638e-05
7.13258e-05
9.82827e-05
0.000104657
)
;
    }
    ceiling
    {
        type            nutkWallFunction;
        Cmu             0.09;
        kappa           0.41;
        E               9.8;
        value           nonuniform List<scalar> 
43
(
0.000254745
0.000295912
0.000340008
0.000187409
0.000189006
0.00020219
0.000206223
0.00020474
0.000194705
0.000182116
0.000170451
0.000160195
0.000151156
0.000143406
0.000136745
0.000130964
0.000125955
0.000121642
0.000117943
0.000114762
0.000111996
0.000109562
0.000107402
0.000105499
0.000103892
0.000102697
0.000102103
0.000102211
0.000103021
0.000102556
9.91947e-05
9.6976e-05
0.000105994
0.000130998
0.000158186
0.000174242
0.000179265
0.000172954
0.000162894
0.000149382
0.000493842
0.000565126
0.000480732
)
;
    }
    sWall
    {
        type            nutkWallFunction;
        Cmu             0.09;
        kappa           0.41;
        E               9.8;
        value           uniform 0.000254807;
    }
    nWall
    {
        type            nutkWallFunction;
        Cmu             0.09;
        kappa           0.41;
        E               9.8;
        value           nonuniform List<scalar> 6(0.000114738 0.00012308 0.000151342 0.000163156 0.000167025 0.000149394);
    }
    sideWalls
    {
        type            empty;
    }
    glass1
    {
        type            nutkWallFunction;
        Cmu             0.09;
        kappa           0.41;
        E               9.8;
        value           nonuniform List<scalar> 9(0.000174757 0.000174116 0.000271259 0.000368065 0.000391617 0.000409323 0.00042818 0.000453047 0.000494461);
    }
    glass2
    {
        type            nutkWallFunction;
        Cmu             0.09;
        kappa           0.41;
        E               9.8;
        value           nonuniform List<scalar> 2(0.000170337 0.000168755);
    }
    sun
    {
        type            nutkWallFunction;
        Cmu             0.09;
        kappa           0.41;
        E               9.8;
        value           nonuniform List<scalar> 
14
(
0.000174555
0.000197638
0.00021193
0.000192383
0.000152744
0.000135623
0.000120851
0.00010694
9.85555e-05
9.17225e-05
8.5555e-05
8.04191e-05
7.59882e-05
7.20879e-05
)
;
    }
    heatsource1
    {
        type            nutkWallFunction;
        Cmu             0.09;
        kappa           0.41;
        E               9.8;
        value           nonuniform List<scalar> 3(0.00011747 0.000102534 0.000114732);
    }
    heatsource2
    {
        type            nutkWallFunction;
        Cmu             0.09;
        kappa           0.41;
        E               9.8;
        value           nonuniform List<scalar> 4(6.93951e-05 5.27129e-05 5.27128e-05 7.31591e-05);
    }
    Table_master
    {
        type            nutkWallFunction;
        Cmu             0.09;
        kappa           0.41;
        E               9.8;
        value           nonuniform List<scalar> 9(3.80153e-05 2.95722e-05 2.66927e-05 2.46093e-05 2.2983e-05 2.17597e-05 2.26881e-05 3.04382e-05 5.15314e-05);
    }
    Table_slave
    {
        type            nutkWallFunction;
        Cmu             0.09;
        kappa           0.41;
        E               9.8;
        value           nonuniform List<scalar> 9(8.73733e-05 9.10613e-05 9.57485e-05 0.000101391 0.000108056 0.000115975 0.000126763 0.000131095 0.000130714);
    }
    inlet
    {
        type            calculated;
        value           uniform 3.3541e-05;
    }
    outlet
    {
        type            calculated;
        value           nonuniform List<scalar> 2(0.00219678 0.0025818);
    }
}


// ************************************************************************* //
