/*--------------------------------*- C++ -*----------------------------------*\
  =========                 |
  \\      /  F ield         | OpenFOAM: The Open Source CFD Toolbox
   \\    /   O peration     | Website:  https://openfoam.org
    \\  /    A nd           | Version:  6
     \\/     M anipulation  |
\*---------------------------------------------------------------------------*/
FoamFile
{
    version     2.0;
    format      ascii;
    class       surfaceScalarField;
    location    "110";
    object      phi;
}
// * * * * * * * * * * * * * * * * * * * * * * * * * * * * * * * * * * * * * //

dimensions      [1 0 -1 0 0 0 0];

internalField   nonuniform List<scalar> 
852
(
-0.00350936
0.00356019
-0.00264514
-0.000863396
-0.00104346
-0.00160086
-0.000504932
-0.000537744
-0.00110227
0.000597629
-0.00201713
0.000914942
-0.00268286
0.000665776
-0.00277499
9.21681e-05
-0.00255794
-0.000217002
-0.00215733
-0.000400571
-0.00170621
-0.00045107
-0.00126959
-0.000436578
-0.000864757
-0.000404784
-0.000458001
-0.000406705
-0.000454082
-0.000536594
0.000541007
-0.000292962
-0.000243577
0.000105127
-0.000398052
0.000351932
-0.000246772
0.000419678
-6.77117e-05
0.000280388
0.000139328
5.05428e-05
0.000229886
-6.98615e-05
0.000120426
-0.000109343
3.94943e-05
-9.89419e-05
-1.03916e-05
-3.99344e-05
-5.90057e-05
5.62312e-05
-9.61697e-05
0.000161567
-0.000105337
0.000208368
-4.6789e-05
0.000185422
2.29755e-05
0.000380256
-0.000194762
0.000703216
-0.000322892
0.000811757
-0.000108478
0.000816704
0.000427354
0.00327953
0.00255701
-0.00299253
0.00351027
-0.00255365
0.00335444
-0.00038142
0.00258479
0.00136768
0.00132052
0.00217948
-0.000228737
0.00221517
-0.00152283
0.00138627
-0.00203502
0.000295192
-0.00192202
-0.000513556
-0.0016832
-0.000689858
-0.0013887
-0.00073104
-0.00103869
-0.000754748
-0.000651875
-0.000793467
-0.000297774
-0.000808132
0.000267447
-0.000565215
0.000267452
0.000743232
-0.000190379
0.000486391
1.33289e-05
9.84573e-05
-1.00863e-05
5.4692e-06
-0.000153757
0.000105997
-0.000168207
0.000107235
0.000138134
1.77267e-05
0.000319457
3.34621e-05
0.00010473
4.74176e-05
2.55602e-05
5.96433e-05
-2.26076e-05
7.29587e-05
-7.23162e-05
9.08763e-05
-0.000114087
0.000114739
-0.000129197
0.00011137
-4.34065e-05
5.69258e-05
7.74542e-05
0.000184178
-0.000321886
0.000393147
-0.000531767
0.000354521
-6.97842e-05
0.00118419
0.00646349
-0.00298301
0.00831268
-0.00484133
0.00818962
-0.00243023
0.00728652
0.000522036
0.0059726
0.00268195
0.00433103
0.00382135
0.00255835
0.00398805
0.000678886
0.0032658
-0.000846795
0.00182078
-0.00147031
0.000109924
-0.0015927
-0.00056746
-0.00156447
-0.000759233
-0.00145797
-0.000861195
-0.00130249
-0.000948897
-0.00112674
-0.000983827
-0.000827991
-0.000863894
-0.000560465
-0.000575464
0.000400656
-0.000832103
0.000270016
-0.000910992
6.88486e-05
-0.000921125
-0.000143564
-0.00079463
-0.000294619
-0.000226684
-0.000429702
9.30067e-05
0.000197957
0.000223719
0.000201301
0.000129166
1.52497e-05
-0.000113776
-0.000156982
-7.92757e-05
4.99475e-05
-0.000450944
-0.000731982
0.000250267
-0.00124007
0.000438358
-3.59448e-05
0.00731301
-0.0100504
0.00878781
-0.00631592
0.00818642
-0.00182861
0.00723099
0.0014777
0.00605985
0.00385336
0.00463475
0.00524672
0.00308312
0.00553989
0.00152949
0.00481951
6.6545e-05
0.00328365
-0.000956982
0.00113327
-0.0014718
-5.26537e-05
-0.00173218
-0.000498816
-0.00190859
-0.000684735
-0.00207104
-0.000786391
-0.00224699
-0.000807809
-0.00241197
-0.000698833
-0.00263115
-0.000341202
-0.00246361
-0.000150289
-0.00220223
0.000139357
-0.00217827
0.000246141
-0.00222226
0.000112919
-0.00230756
-5.81715e-05
-0.00239842
-0.000203663
-0.00256727
-0.000260748
-0.00235817
-0.000209148
-0.00211772
-0.000240496
-0.00179202
-0.00032574
-0.0013404
-0.000451655
-0.000722192
-0.000618233
8.61799e-05
-0.00080839
0.00103962
-0.00095345
0.00195113
-0.000911513
0.00265163
-0.000700491
0.00248829
-0.000287461
0.00225738
0.000481311
0.00164515
0.00105069
0.00162854
0.00377841
-0.013521
0.00450597
-0.00704326
0.00439235
-0.00171477
0.00417363
0.00169666
0.00370443
0.00432283
0.00297148
0.00597995
0.00206854
0.00644303
0.00110299
0.00578514
0.000170516
0.00421603
-0.00065901
0.00196259
-0.00126113
0.000549441
-0.00164191
-0.000118006
-0.00190894
-0.000417649
-0.00213465
-0.000560625
-0.00233879
-0.000603595
-0.00250375
-0.000533802
-0.00250522
-0.000339646
-0.00251501
-0.000140401
-0.00239766
2.21004e-05
-0.0022429
9.1464e-05
-0.00216131
3.14133e-05
-0.00213901
-8.03755e-05
-0.00215175
-0.000190836
-0.00215208
-0.000260327
-0.00204649
-0.000314642
-0.00187361
-0.00041328
-0.00162606
-0.00057318
-0.00127865
-0.000798948
-0.000812066
-0.0010847
-0.000220856
-0.00139947
0.000468757
-0.00164292
0.00121717
-0.00165977
0.00188821
-0.00137138
0.00229963
-0.000698733
0.00244855
0.000332537
0.00231001
0.00118935
0.00240414
0.00153453
0.000821399
0.00158266
-0.000655994
0.00147733
-0.000599271
0.000881648
-0.014031
0.0012563
-0.00741768
0.00172025
-0.00217847
0.00137526
0.00204191
0.0011658
0.00453258
0.00095373
0.00619228
0.00066584
0.00673112
0.000302421
0.00614862
-9.0437e-05
0.00460876
-0.00056673
0.00243873
-0.000995976
0.000978666
-0.00131904
0.000205094
-0.00154974
-0.000186897
-0.00173042
-0.000379891
-0.00188147
-0.000452482
-0.00199035
-0.00042485
-0.00201239
-0.000317525
-0.00197426
-0.00017845
-0.00188666
-6.5411e-05
-0.00177882
-1.62881e-05
-0.00170447
-4.28552e-05
-0.00167586
-0.000108916
-0.00167972
-0.000186898
-0.00167834
-0.000261625
-0.00164264
-0.000350258
-0.00156874
-0.000487093
-0.00144712
-0.000694711
-0.00126126
-0.000984711
-0.00100077
-0.00134508
-0.000669449
-0.00173067
-0.000263231
-0.002049
0.000248375
-0.00217123
0.000834541
-0.0019574
0.00145974
-0.00132379
0.00197013
-0.000177709
0.0022777
0.000881912
0.00248688
0.00132549
0.00262961
0.00144007
0.00246559
0.00164148
0.00193267
-0.000592171
-0.0130044
-0.000477664
-0.00753194
-0.000580314
-0.00207556
-0.00131176
0.00277361
-0.00116455
0.00438565
-0.000823451
0.00585143
-0.000545033
0.00645288
-0.000384273
0.0059879
-0.000341158
0.00456553
-0.000487358
0.00258483
-0.000690117
0.00118142
-0.000879747
0.00039476
-0.00103382
-3.27767e-05
-0.00115352
-0.000260133
-0.00124788
-0.000358059
-0.0013079
-0.00036477
-0.00131774
-0.000307613
-0.00127551
-0.000220607
-0.00119959
-0.000141268
-0.00111768
-9.81187e-05
-0.00106141
-9.90578e-05
-0.00104044
-0.000129828
-0.00105045
-0.000176822
-0.00107716
-0.000234849
-0.00111109
-0.000316263
-0.00115103
-0.000447074
-0.00119179
-0.000653881
-0.0012205
-0.000955914
-0.00122772
-0.00133777
-0.00120496
-0.00175332
-0.00113655
-0.00211728
-0.000986146
-0.00232149
-0.000700085
-0.00224332
-0.00022213
-0.00180161
0.000493016
-0.000892704
0.00119614
0.000178918
0.00181832
0.000703442
0.00260343
0.000655101
0.00270594
0.00153911
0.00470531
-0.00292327
-0.00958726
-0.00436755
-0.00608741
-0.00405639
-0.00238647
-0.00384229
0.00255976
-0.00304493
0.00358854
-0.00215117
0.0049579
-0.00137457
0.00567644
-0.00078543
0.0053988
-0.000400146
0.00418018
-0.000247146
0.00243176
-0.000243198
0.00117748
-0.000300187
0.000451793
-0.000374827
4.19128e-05
-0.000446308
-0.000188594
-0.000504802
-0.000299507
-0.000541183
-0.00032833
-0.000545688
-0.000303047
-0.000515485
-0.000250748
-0.000460133
-0.000196556
-0.000398582
-0.000159607
-0.000350987
-0.000146593
-0.000327982
-0.000152775
-0.00033283
-0.000171918
-0.00036635
-0.000201275
-0.000435706
-0.000246851
-0.000557617
-0.000325105
-0.000748326
-0.000463113
-0.00100636
-0.000697816
-0.00132632
-0.00101774
-0.00168974
-0.0013898
-0.00206758
-0.00173932
-0.00240693
-0.00198199
-0.00263596
-0.00201414
-0.00266493
-0.0017725
-0.00231019
-0.00124731
-0.00160482
-0.000526301
-0.000996692
9.54671e-05
-0.000682864
0.000341475
-0.000845587
0.00170214
0.00419673
-0.00904366
-0.0151302
-0.0100446
-0.00747186
-0.00624063
-0.00124392
-0.00433633
0.00168448
-0.00293392
0.0035557
-0.0017606
0.00450328
-0.000838996
0.00447726
-0.000149008
0.00349017
0.00025257
0.00203017
0.000413774
0.00101632
0.000453739
0.00041189
0.000437921
5.77953e-05
0.000396667
-0.000147278
0.000350496
-0.000253276
0.000313459
-0.000291235
0.000295934
-0.000285464
0.000301837
-0.000256592
0.000326953
-0.000221612
0.000360181
-0.000192775
0.000389089
-0.000175443
0.000405292
-0.000168922
0.000403951
-0.000170524
0.000380534
-0.000177805
0.000323814
-0.00019008
0.000206553
-0.000207793
-2.21967e-05
-0.000234314
-0.00041166
-0.000308304
-0.000976222
-0.000453128
-0.00170294
-0.000663011
-0.00257282
-0.00086934
-0.00357605
-0.00097861
-0.00474441
-0.000845607
-0.00603767
-0.000479093
-0.00724573
-3.9096e-05
-0.00829303
0.000521142
-0.00938592
0.00118851
-0.0106345
0.00159024
-0.0092021
0.000269846
-0.0046358
-0.00807987
0.00113105
-0.00617599
-0.00314758
-0.00449584
4.56874e-06
-0.00302713
0.00208721
-0.00167027
0.00314659
-0.000505702
0.0033128
0.000460262
0.00252424
0.0010328
0.0014577
0.00130394
0.000745283
0.00140802
0.000307902
0.00142061
4.52997e-05
0.00138441
-0.000110997
0.00132811
-0.000196903
0.00127082
-0.000233882
0.00122445
-0.000239033
0.00119433
-0.000226412
0.0011795
-0.000206725
0.00117414
-0.00018735
0.00117084
-0.000172084
0.00116366
-0.000161684
0.00114855
-0.000155359
0.00112232
-0.000151524
0.00107998
-0.000147684
0.00101133
-0.000139093
0.000896549
-0.000119477
0.000682639
-9.43432e-05
0.000320468
-9.09099e-05
-0.000188831
-0.000153652
-0.000713012
-0.000345093
-0.0010496
-0.000641885
-0.00131004
-0.000584915
-0.00175982
-2.9151e-05
-0.00228002
0.00048123
-0.00270927
0.000950498
-0.00266157
0.00114092
-0.00168517
0.000613941
-0.000281773
-0.0011335
-0.0048299
-0.0018884
0.00302078
-0.00361729
-0.00141847
-0.00357977
-3.27294e-05
-0.00260425
0.00111192
-0.00122067
0.0017632
0.000208085
0.00188417
0.00139884
0.00133361
0.00207616
0.000780534
0.00241636
0.000405231
0.00255211
0.000172293
0.00256835
2.91898e-05
0.00252001
-6.25458e-05
0.00244056
-0.000117355
0.00235069
-0.000143924
0.0022637
-0.000151977
0.00218649
-0.000149133
0.00212073
-0.000140892
0.00206444
-0.000130995
0.00201406
-0.000121644
0.00196623
-0.00011379
0.00191853
-0.000107599
0.00186967
-0.000102609
0.00181923
-9.7183e-05
0.00176692
-8.67223e-05
0.00170994
-6.24357e-05
0.0016354
-1.97462e-05
0.00151203
3.25108e-05
0.00129936
5.90674e-05
0.0010279
-7.36189e-05
0.000812929
-0.000426783
0.000759953
-0.0005315
0.00069706
3.41157e-05
0.000709384
0.000469115
0.000945312
0.00071469
0.00141542
0.000670902
0.00183909
0.000190346
0.00159589
-0.000890214
-0.00313849
-0.00344233
-0.00503226
-0.00200959
-0.00342747
-0.00345995
-0.00234787
-0.000584205
0.00130141
0.00263797
0.00342253
0.00383264
0.00401053
0.00404594
0.0039902
0.00388022
0.0037442
0.00360065
0.00346043
0.00332893
0.00320779
0.00309646
0.00299343
0.00289703
0.00280606
0.00272094
0.00264669
0.00259709
0.00259049
0.00263642
0.00270924
0.00264998
0.00223846
0.00172371
0.00177519
0.00226047
0.00299031
0.00367598
0.00388151
0.00300723
)
;

boundaryField
{
    floor
    {
        type            calculated;
        value           nonuniform List<scalar> 
29
(
0
0
0
0
0
0
0
0
0
0
0
0
0
0
0
0
0
0
0
0
-4.89308e-06
-1.29115e-05
-1.99232e-05
-1.92385e-05
-3.86625e-06
-4.34606e-06
-1.1761e-05
-1.55103e-05
-1.71708e-05
)
;
    }
    ceiling
    {
        type            calculated;
        value           nonuniform List<scalar> 
43
(
-1.44084e-06
-1.91711e-06
-1.71018e-06
-3.72603e-07
-3.19325e-08
7.99406e-08
-2.34686e-07
-1.28314e-06
-2.75357e-06
-3.82641e-06
-4.68335e-06
-5.40786e-06
-6.05025e-06
-6.65502e-06
-7.23454e-06
-7.78978e-06
-8.3206e-06
-8.82779e-06
-9.31409e-06
-9.78398e-06
-1.02424e-05
-1.06931e-05
-1.11377e-05
-1.15752e-05
-1.20007e-05
-1.24039e-05
-1.2769e-05
-1.30851e-05
-1.33561e-05
-1.37161e-05
-1.43106e-05
-1.51231e-05
-1.61753e-05
-1.65718e-05
-1.56767e-05
-1.48828e-05
-1.46033e-05
-1.50703e-05
-1.58389e-05
-1.64614e-05
7.73075e-07
-6.01437e-07
-1.13133e-06
)
;
    }
    sWall
    {
        type            calculated;
        value           uniform -0.000181066;
    }
    nWall
    {
        type            calculated;
        value           nonuniform List<scalar> 6(-5.67812e-05 -6.62111e-05 -6.65453e-05 -8.76029e-05 -9.54488e-05 -0.000114711);
    }
    sideWalls
    {
        type            empty;
        value           nonuniform 0();
    }
    glass1
    {
        type            calculated;
        value           nonuniform List<scalar> 9(-4.99508e-05 -0.000145845 -0.000200423 -0.00024537 -0.000307653 -0.000371352 -0.000434275 -0.000493602 -0.000544125);
    }
    glass2
    {
        type            calculated;
        value           nonuniform List<scalar> 2(-0.00033687 -0.000369449);
    }
    sun
    {
        type            calculated;
        value           uniform 0;
    }
    heatsource1
    {
        type            calculated;
        value           nonuniform List<scalar> 3(2.0531e-07 2.05753e-07 2.06086e-07);
    }
    heatsource2
    {
        type            calculated;
        value           nonuniform List<scalar> 4(5.1547e-08 5.16109e-08 0 0);
    }
    Table_master
    {
        type            calculated;
        value           nonuniform List<scalar> 9(-1.54949e-07 -1.55085e-07 -1.55123e-07 -1.55157e-07 -1.55191e-07 -1.55233e-07 -1.55236e-07 -1.55199e-07 -1.55103e-07);
    }
    Table_slave
    {
        type            calculated;
        value           nonuniform List<scalar> 9(1.53834e-07 1.53897e-07 1.53966e-07 1.54061e-07 1.54198e-07 1.54362e-07 1.54281e-07 1.53982e-07 1.53758e-07);
    }
    inlet
    {
        type            calculated;
        value           uniform -0.000522782;
    }
    outlet
    {
        type            calculated;
        value           nonuniform List<scalar> 2(0.00362499 0.00159202);
    }
}


// ************************************************************************* //
