/*--------------------------------*- C++ -*----------------------------------*\
  =========                 |
  \\      /  F ield         | OpenFOAM: The Open Source CFD Toolbox
   \\    /   O peration     | Website:  https://openfoam.org
    \\  /    A nd           | Version:  6
     \\/     M anipulation  |
\*---------------------------------------------------------------------------*/
FoamFile
{
    version     2.0;
    format      ascii;
    class       volScalarField;
    location    "110";
    object      T;
}
// * * * * * * * * * * * * * * * * * * * * * * * * * * * * * * * * * * * * * //

dimensions      [0 0 0 1 0 0 0];

internalField   nonuniform List<scalar> 
459
(
303.91
303.773
303.707
303.324
302.709
302.43
302.29
302.218
302.188
302.166
302.147
302.134
302.124
302.117
302.119
302.002
301.99
301.997
302.007
302.008
302.002
301.985
301.948
301.909
301.876
301.845
301.819
301.802
301.801
301.8
301.807
301.817
301.815
301.829
304.209
304.138
304.076
303.971
303.691
303.319
302.929
302.499
302.311
302.229
302.182
302.155
302.136
302.119
302.099
302.069
302.025
302.003
301.99
301.993
302.004
301.997
301.969
301.924
301.868
301.821
301.781
301.748
301.725
301.711
301.713
301.738
301.843
301.842
301.824
301.832
304.417
304.204
304.115
304.082
303.981
303.763
303.441
303.062
302.651
302.334
302.231
302.189
302.165
302.143
302.119
302.092
302.064
302.038
302.029
302.034
302.04
302.035
302.011
301.876
301.797
301.754
301.723
301.699
301.683
301.679
301.698
301.765
301.968
301.888
301.871
301.863
304.229
303.961
303.892
303.893
303.902
303.828
303.624
303.308
302.921
302.486
302.291
302.231
302.205
302.183
302.159
302.133
302.111
302.103
302.095
302.11
302.13
302.145
302.155
302.162
302.169
302.172
302.176
302.179
302.18
302.18
302.172
302.164
302.154
302.132
302.085
302.036
302.024
304.073
303.655
303.6
303.67
303.769
303.786
303.659
303.391
303.018
302.575
302.356
302.283
302.26
302.246
302.229
302.21
302.193
302.181
302.178
302.187
302.202
302.214
302.22
302.224
302.227
302.229
302.23
302.229
302.225
302.218
302.206
302.194
302.181
302.163
302.131
302.091
302.055
302.04
302.041
302.1
303.939
303.412
303.426
303.544
303.695
303.748
303.647
303.395
303.026
302.608
302.407
302.341
302.321
302.313
302.303
302.29
302.276
302.264
302.259
302.261
302.268
302.275
302.279
302.281
302.282
302.281
302.278
302.271
302.26
302.246
302.23
302.216
302.202
302.183
302.151
302.114
302.081
302.056
302.042
302.059
303.795
303.308
303.408
303.565
303.675
303.707
303.602
303.353
302.999
302.635
302.456
302.398
302.384
302.382
302.378
302.369
302.357
302.346
302.339
302.336
302.337
302.34
302.341
302.341
302.34
302.336
302.328
302.314
302.294
302.272
302.251
302.235
302.222
302.205
302.169
302.125
302.093
302.07
302.057
302.07
303.638
303.266
303.391
303.585
303.643
303.64
303.529
303.295
302.976
302.668
302.513
302.462
302.452
302.453
302.452
302.448
302.439
302.428
302.419
302.412
302.409
302.407
302.406
302.404
302.401
302.395
302.382
302.361
302.333
302.302
302.275
302.257
302.245
302.233
302.21
302.172
302.133
302.122
302.141
302.298
303.475
303.153
303.142
303.514
303.574
303.55
303.443
303.239
302.969
302.713
302.589
302.543
302.53
302.529
302.529
302.526
302.52
302.51
302.5
302.491
302.484
302.478
302.473
302.469
302.464
302.457
302.445
302.42
302.386
302.346
302.311
302.287
302.278
302.288
302.302
302.316
302.331
302.349
302.37
302.429
302.664
303.331
303.453
303.443
303.358
303.196
302.973
302.784
302.691
302.648
302.628
302.619
302.613
302.608
302.601
302.593
302.583
302.573
302.563
302.554
302.546
302.538
302.53
302.521
302.509
302.491
302.467
302.431
302.388
302.341
302.287
302.267
302.276
302.29
302.301
302.303
302.285
302.296
302.983
303.266
303.323
303.338
303.286
303.171
302.992
302.875
302.807
302.767
302.742
302.724
302.711
302.7
302.69
302.68
302.669
302.657
302.646
302.634
302.623
302.612
302.601
302.589
302.576
302.56
302.542
302.522
302.503
302.467
302.369
302.279
302.253
302.259
302.268
302.267
302.255
302.277
303.121
303.059
303.065
303.215
303.24
303.25
303.227
303.147
303.041
302.975
302.93
302.898
302.874
302.853
302.834
302.817
302.801
302.787
302.773
302.759
302.746
302.732
302.719
302.706
302.693
302.679
302.666
302.651
302.636
302.622
302.611
302.586
302.495
302.35
302.268
302.245
302.24
302.237
302.235
302.266
)
;

boundaryField
{
    floor
    {
        type            wallHeatTransfer;
        Tinf            uniform 305.2;
        alphaWall       uniform 0.24;
        value           nonuniform List<scalar> 
29
(
302.632
302.579
302.505
302.539
302.613
302.664
302.709
302.755
302.792
302.802
302.803
302.796
302.791
302.793
302.807
302.797
302.573
302.425
302.414
302.478
302.478
302.403
302.392
302.389
302.632
302.579
302.524
302.45
302.488
)
;
    }
    ceiling
    {
        type            wallHeatTransfer;
        Tinf            uniform 303.2;
        alphaWall       uniform 0.24;
        value           nonuniform List<scalar> 
43
(
303.126
303.066
303.071
303.214
303.236
303.247
303.225
303.151
303.053
302.993
302.953
302.925
302.904
302.887
302.871
302.857
302.844
302.832
302.821
302.81
302.799
302.788
302.778
302.767
302.756
302.745
302.733
302.721
302.707
302.695
302.687
302.667
302.582
302.439
302.352
302.324
302.318
302.318
302.32
302.354
303.466
303.155
302.99
)
;
    }
    sWall
    {
        type            wallHeatTransfer;
        Tinf            uniform 315.2;
        alphaWall       uniform 0.36;
        value           uniform 304.185;
    }
    nWall
    {
        type            wallHeatTransfer;
        Tinf            uniform 307.2;
        alphaWall       uniform 0.36;
        value           nonuniform List<scalar> 6(302.939 302.863 302.757 302.916 302.888 302.934);
    }
    sideWalls
    {
        type            empty;
    }
    glass1
    {
        type            wallHeatTransfer;
        Tinf            uniform 315.2;
        alphaWall       uniform 4.3;
        value           nonuniform List<scalar> 9(310.96 311.082 310.084 309.201 308.951 308.758 308.554 308.308 307.973);
    }
    glass2
    {
        type            wallHeatTransfer;
        Tinf            uniform 307.2;
        alphaWall       uniform 4.3;
        value           nonuniform List<scalar> 2(305.367 305.426);
    }
    sun
    {
        type            wallHeatTransfer;
        Tinf            uniform 305.2;
        alphaWall       uniform 0.24;
        value           nonuniform List<scalar> 
14
(
304.017
303.879
303.812
303.467
302.94
302.712
302.615
302.582
302.579
302.581
302.586
302.594
302.604
302.615
)
;
    }
    heatsource1
    {
        type            fixedGradient;
        gradient        uniform 0;
    }
    heatsource2
    {
        type            fixedGradient;
        gradient        uniform 0;
    }
    Table_master
    {
        type            zeroGradient;
    }
    Table_slave
    {
        type            zeroGradient;
    }
    inlet
    {
        type            fixedValue;
        value           uniform 290.15;
    }
    outlet
    {
        type            zeroGradient;
    }
}


// ************************************************************************* //
