/*--------------------------------*- C++ -*----------------------------------*\
  =========                 |
  \\      /  F ield         | OpenFOAM: The Open Source CFD Toolbox
   \\    /   O peration     | Website:  https://openfoam.org
    \\  /    A nd           | Version:  6
     \\/     M anipulation  |
\*---------------------------------------------------------------------------*/
FoamFile
{
    version     2.0;
    format      ascii;
    class       volVectorField;
    location    "110";
    object      U;
}
// * * * * * * * * * * * * * * * * * * * * * * * * * * * * * * * * * * * * * //

dimensions      [0 1 -1 0 0 0 0];

internalField   nonuniform List<vector> 
459
(
(-0.0414414 0.0479172 0)
(-0.134474 -0.0485578 0)
(-0.0583058 -0.0540941 0)
(-0.0358133 0.00847267 0)
(-0.0383857 0.0390861 0)
(-0.0718836 0.0234906 0)
(-0.106824 0.00437507 0)
(-0.120883 -0.00702227 0)
(-0.115222 -0.0125257 0)
(-0.101327 -0.0160897 0)
(-0.0830305 -0.0164541 0)
(-0.0633548 -0.0154501 0)
(-0.0432428 -0.0145265 0)
(-0.0293373 -0.0153351 0)
(-0.0559993 -0.0174583 0)
(0.0296547 0.00880164 0)
(-0.0226563 -0.0107655 0)
(-0.00805437 -0.0143862 0)
(0.0087479 -0.0106005 0)
(0.0164 -0.00620882 0)
(0.0171551 -0.000636979 0)
(0.00981207 0.00331564 0)
(-0.000851515 0.00216775 0)
(-0.00460419 0.00046165 0)
(-0.00491634 -0.000502226 0)
(-0.00314676 -0.00142045 0)
(0.000229386 -0.00226109 0)
(0.00466348 -0.00260949 0)
(0.00807829 -0.00122761 0)
(0.00782578 0.000858124 0)
(0.0131156 -0.00692663 0)
(0.0223716 -0.0174259 0)
(0.0386965 -0.0110296 0)
(-0.011304 0.0142149 0)
(0.228604 0.217227 0)
(0.0916223 -0.0965243 0)
(0.136408 -0.0911594 0)
(0.144972 -0.0197391 0)
(0.129998 0.0429814 0)
(0.088438 0.0709556 0)
(0.0275926 0.0649779 0)
(-0.0488924 0.0198439 0)
(-0.0830827 -0.0110464 0)
(-0.0864547 -0.024272 0)
(-0.0779528 -0.0276351 0)
(-0.0662662 -0.0276706 0)
(-0.0520499 -0.0274749 0)
(-0.0365624 -0.0287535 0)
(-0.0236713 -0.0317297 0)
(-0.00554036 -0.0317773 0)
(0.0182051 -0.00141687 0)
(0.12272 0.00990164 0)
(0.0266955 4.60846e-05 0)
(0.000863267 -0.00669354 0)
(-0.00177589 -0.00751566 0)
(-0.0012503 -0.00414711 0)
(0.00705213 0.00741295 0)
(0.00634796 0.0121851 0)
(0.000425937 0.00583005 0)
(0.00110676 0.00259397 0)
(0.00213844 0.000438828 0)
(0.00289423 -0.00196252 0)
(0.00360092 -0.00393153 0)
(0.00443893 -0.00485309 0)
(0.00463617 -0.00244748 0)
(-0.00230738 -0.000114931 0)
(0.014533 -0.0141912 0)
(0.0109189 -0.0208871 0)
(0.0276219 -0.00807873 0)
(-0.07868 0.0412217 0)
(0.5564 0.0901085 0)
(0.324792 -0.099666 0)
(0.328655 -0.0777154 0)
(0.34129 0.012004 0)
(0.296669 0.0891506 0)
(0.226112 0.130487 0)
(0.148228 0.135812 0)
(0.0689834 0.106482 0)
(-0.0112488 0.0445938 0)
(-0.0592674 -0.0148318 0)
(-0.0675455 -0.0299586 0)
(-0.0684171 -0.0344906 0)
(-0.0650774 -0.0373573 0)
(-0.0593245 -0.0406677 0)
(-0.0527949 -0.042805 0)
(-0.045925 -0.0394034 0)
(-0.0388587 -0.0300143 0)
(0.084035 0.00426427 0)
(-0.0442353 0.00684552 0)
(-0.0394824 0.00366677 0)
(-0.040015 -0.00468411 0)
(-0.03907 -0.00971907 0)
(-0.0327833 -0.0095828 0)
(0.0113389 0.00976171 0)
(0.00673817 -0.000907213 0)
(0.00873871 -0.00468698 0)
(0.00913535 -0.00698344 0)
(0.00725587 -0.00881158 0)
(0.00364757 -0.0100105 0)
(-0.00142583 -0.00907962 0)
(-0.0108141 -0.00402751 0)
(-0.024073 0.00322561 0)
(0.0360417 -0.00899194 0)
(-0.00853146 0.00597115 0)
(-0.0542794 0.0158688 0)
(-0.15447 0.0243774 0)
(0.724339 -0.378293 0)
(0.288153 -0.294026 0)
(0.324493 -0.143764 0)
(0.347073 0.00283868 0)
(0.301997 0.12093 0)
(0.235284 0.187999 0)
(0.166433 0.2044 0)
(0.0976515 0.176943 0)
(0.0298803 0.11578 0)
(-0.0283629 0.0286242 0)
(-0.0559335 -0.0155512 0)
(-0.0698032 -0.0285259 0)
(-0.0782277 -0.0342024 0)
(-0.0850755 -0.0371375 0)
(-0.0924953 -0.0353193 0)
(-0.101903 -0.0231432 0)
(-0.112331 0.00599566 0)
(-0.110925 0.0528483 0)
(-0.0889522 0.013845 0)
(-0.0977413 0.0108095 0)
(-0.0944995 0.00222008 0)
(-0.0974408 -0.00636419 0)
(-0.102314 -0.0125882 0)
(-0.107849 -0.0153437 0)
(-0.106718 -0.0108721 0)
(-0.096912 -0.0116662 0)
(-0.0844517 -0.0148273 0)
(-0.0672054 -0.0193977 0)
(-0.0442846 -0.0254973 0)
(-0.0166384 -0.0329117 0)
(0.0274065 -0.0380304 0)
(0.0638556 -0.0346347 0)
(0.0986914 -0.0275394 0)
(0.115934 -0.0148329 0)
(0.1081 0.0133079 0)
(0.0861156 0.0319916 0)
(-0.0056581 0.0378003 0)
(0.716351 -0.544905 0)
(0.0230851 -0.306185 0)
(0.153986 -0.0744431 0)
(0.204415 0.0816524 0)
(0.186978 0.183743 0)
(0.150193 0.245557 0)
(0.110342 0.261124 0)
(0.0675462 0.231492 0)
(0.0237018 0.16506 0)
(-0.0178252 0.0695036 0)
(-0.0439388 0.0117579 0)
(-0.0638264 -0.0137566 0)
(-0.0766678 -0.0242185 0)
(-0.0870566 -0.0298289 0)
(-0.0965849 -0.032405 0)
(-0.104529 -0.0311875 0)
(-0.10845 -0.0241023 0)
(-0.108755 -0.00918001 0)
(-0.104882 0.00385431 0)
(-0.0993733 0.00840172 0)
(-0.0941221 0.00427238 0)
(-0.0921624 -0.00175775 0)
(-0.0924528 -0.00725421 0)
(-0.0930299 -0.0103373 0)
(-0.0907901 -0.0106978 0)
(-0.0848218 -0.0139885 0)
(-0.0756863 -0.019709 0)
(-0.0626043 -0.0279501 0)
(-0.0449666 -0.0386035 0)
(-0.0232817 -0.0506324 0)
(0.00517739 -0.0595538 0)
(0.0354798 -0.0578939 0)
(0.065402 -0.0448121 0)
(0.0906181 -0.0186997 0)
(0.107352 0.0201018 0)
(0.111319 0.0503202 0)
(0.0860888 0.0678464 0)
(0.104252 0.0664586 0)
(0.0571325 0.0386683 0)
(-0.367272 -0.0345876 0)
(0.678949 -0.617032 0)
(-0.188279 -0.318567 0)
(0.0706662 -0.0708885 0)
(0.0877291 0.0859763 0)
(0.0655371 0.19914 0)
(0.0508857 0.270145 0)
(0.0376456 0.290102 0)
(0.0209306 0.261658 0)
(0.00194056 0.192833 0)
(-0.0189411 0.0957734 0)
(-0.0351719 0.0338191 0)
(-0.0506589 0.00270449 0)
(-0.0622145 -0.0123419 0)
(-0.0707137 -0.0193544 0)
(-0.0779734 -0.0215614 0)
(-0.0836765 -0.0195387 0)
(-0.0864588 -0.0141232 0)
(-0.0860058 -0.00775044 0)
(-0.0830714 -0.00171972 0)
(-0.0787433 0.00124306 0)
(-0.0744054 -0.000404742 0)
(-0.0722407 -0.00425942 0)
(-0.0720227 -0.00852881 0)
(-0.0723415 -0.0121218 0)
(-0.0716889 -0.0154838 0)
(-0.0693627 -0.0208767 0)
(-0.0650626 -0.0291055 0)
(-0.0581862 -0.0405077 0)
(-0.0483464 -0.0547148 0)
(-0.0358223 -0.0700693 0)
(-0.0207176 -0.0825394 0)
(-0.00187734 -0.0865722 0)
(0.0206734 -0.075576 0)
(0.0448825 -0.0459097 0)
(0.0774914 0.0043689 0)
(0.0969761 0.0463287 0)
(0.100503 0.0661329 0)
(0.114629 0.0674856 0)
(0.129692 0.0701558 0)
(-0.0792264 0.057483 0)
(0.570911 -0.587692 0)
(-0.239251 -0.32714 0)
(0.00748719 -0.0966482 0)
(-0.0226001 0.117438 0)
(-0.0502457 0.200977 0)
(-0.0387096 0.268125 0)
(-0.0266729 0.291267 0)
(-0.0195103 0.266465 0)
(-0.0169022 0.200352 0)
(-0.0200615 0.109957 0)
(-0.0258348 0.0476458 0)
(-0.033908 0.0137302 0)
(-0.0415113 -0.00417622 0)
(-0.0471065 -0.0133331 0)
(-0.051788 -0.0170648 0)
(-0.0552561 -0.0166807 0)
(-0.056801 -0.0132625 0)
(-0.0560339 -0.00874832 0)
(-0.053334 -0.00471259 0)
(-0.0497237 -0.00264118 0)
(-0.0465135 -0.00302322 0)
(-0.04482 -0.00500468 0)
(-0.0446833 -0.00778916 0)
(-0.0455932 -0.0109437 0)
(-0.0469746 -0.0150059 0)
(-0.0485728 -0.0212823 0)
(-0.0501731 -0.0308202 0)
(-0.0513719 -0.0441352 0)
(-0.0518959 -0.0605994 0)
(-0.0517518 -0.0782716 0)
(-0.0503327 -0.093508 0)
(-0.0465879 -0.101654 0)
(-0.0394681 -0.0975456 0)
(-0.027432 -0.076889 0)
(0.000640346 -0.0305562 0)
(0.0457363 0.02484 0)
(0.0660458 0.0466114 0)
(0.0958837 0.0452636 0)
(0.147007 0.0606611 0)
(-0.0587877 0.132071 0)
(0.37563 -0.466518 0)
(-0.297559 -0.268588 0)
(-0.202926 -0.0979266 0)
(-0.121879 0.132448 0)
(-0.150486 0.180921 0)
(-0.109299 0.24035 0)
(-0.0735595 0.267549 0)
(-0.0456498 0.250029 0)
(-0.0257323 0.191639 0)
(-0.0144112 0.110901 0)
(-0.0100159 0.0523499 0)
(-0.0110931 0.0189101 0)
(-0.0142302 0.00055444 0)
(-0.0175925 -0.00951141 0)
(-0.020456 -0.0141433 0)
(-0.0226578 -0.0150278 0)
(-0.0236436 -0.0133389 0)
(-0.0230884 -0.0104201 0)
(-0.0211466 -0.00756404 0)
(-0.0184634 -0.00575857 0)
(-0.015938 -0.00534828 0)
(-0.0143373 -0.00600415 0)
(-0.0139268 -0.00735061 0)
(-0.0147238 -0.00922893 0)
(-0.0168428 -0.0120621 0)
(-0.0207835 -0.016863 0)
(-0.0271586 -0.0249022 0)
(-0.0365289 -0.0371766 0)
(-0.0487904 -0.0530566 0)
(-0.0638208 -0.0706119 0)
(-0.079953 -0.0864519 0)
(-0.0957701 -0.0968551 0)
(-0.110429 -0.0976867 0)
(-0.119903 -0.0866837 0)
(-0.115053 -0.0641613 0)
(-0.0869935 -0.0330441 0)
(-0.0464329 -0.00282095 0)
(-0.0116454 0.0179511 0)
(0.0474864 0.109447 0)
(-0.56848 0.256713 0)
(0.0907424 -0.31949 0)
(-0.584037 -0.239807 0)
(-0.728971 -0.191169 0)
(-0.19398 0.0450644 0)
(-0.232826 0.125792 0)
(-0.154518 0.190024 0)
(-0.0990453 0.224502 0)
(-0.0548888 0.216917 0)
(-0.0211287 0.169194 0)
(0.00327485 0.0985802 0)
(0.015905 0.0486598 0)
(0.0200183 0.0195077 0)
(0.0200209 0.00261765 0)
(0.0183086 -0.00715692 0)
(0.0162112 -0.0121594 0)
(0.0142151 -0.0138598 0)
(0.0128926 -0.0133904 0)
(0.0125941 -0.0117738 0)
(0.0133133 -0.00992837 0)
(0.014685 -0.0085277 0)
(0.0161451 -0.00783751 0)
(0.0171955 -0.00776883 0)
(0.0175649 -0.00814979 0)
(0.0170963 -0.0088585 0)
(0.0155136 -0.00995656 0)
(0.0121183 -0.0117562 0)
(0.00572928 -0.0150782 0)
(-0.00738 -0.0223921 0)
(-0.027787 -0.0334809 0)
(-0.0564109 -0.046755 0)
(-0.0901754 -0.0581186 0)
(-0.128287 -0.0632475 0)
(-0.175682 -0.0576724 0)
(-0.232082 -0.0400728 0)
(-0.289173 -0.013884 0)
(-0.336886 0.0153786 0)
(-0.377254 0.0376239 0)
(-0.409126 0.0431997 0)
(-0.457036 0.0295285 0)
(-0.697288 -0.00880179 0)
(-1.62155 -0.21543 0)
(-0.0820394 -0.116353 0)
(-0.235387 0.0349809 0)
(-0.160688 0.123413 0)
(-0.100171 0.167078 0)
(-0.0465749 0.170294 0)
(2.16601e-05 0.132459 0)
(0.0344168 0.0768456 0)
(0.0525313 0.0396202 0)
(0.0602661 0.0168388 0)
(0.0621172 0.00311088 0)
(0.0609721 -0.00504221 0)
(0.0585859 -0.0094299 0)
(0.0558926 -0.0112438 0)
(0.0535023 -0.0114242 0)
(0.0517834 -0.0107262 0)
(0.0508262 -0.00973552 0)
(0.0504585 -0.00885703 0)
(0.0503543 -0.00828192 0)
(0.050194 -0.0080203 0)
(0.0497609 -0.00800101 0)
(0.0489206 -0.00812848 0)
(0.0475359 -0.00830715 0)
(0.0453345 -0.00841666 0)
(0.0417536 -0.00836947 0)
(0.0351126 -0.00875398 0)
(0.023357 -0.0107217 0)
(0.00228293 -0.0158651 0)
(-0.0208851 -0.0227668 0)
(-0.0345495 -0.0269513 0)
(-0.0486529 -0.0221542 0)
(-0.0665853 -0.0101964 0)
(-0.0826096 0.0066118 0)
(-0.110296 0.0283675 0)
(-0.127765 0.0489443 0)
(-0.111404 0.0468184 0)
(0.0334644 -0.0327197 0)
(-0.279996 -0.267765 0)
(-0.424493 0.0633673 0)
(0.00156423 -0.118595 0)
(-0.164446 -0.0184765 0)
(-0.138177 0.0623309 0)
(-0.0836653 0.106162 0)
(-0.0238914 0.115974 0)
(0.0379915 0.0859979 0)
(0.07684 0.0507104 0)
(0.0992601 0.0271204 0)
(0.109311 0.0133445 0)
(0.111858 0.00608073 0)
(0.110348 0.00247206 0)
(0.107078 0.00113989 0)
(0.103146 0.00143474 0)
(0.0991678 0.00280157 0)
(0.095535 0.00478535 0)
(0.0924255 0.00704941 0)
(0.089818 0.00936876 0)
(0.0875665 0.0116237 0)
(0.0854969 0.0137801 0)
(0.0834741 0.0158513 0)
(0.0814217 0.0178824 0)
(0.0793175 0.0199828 0)
(0.0771735 0.0224459 0)
(0.0749641 0.0258263 0)
(0.0722383 0.0303279 0)
(0.0681186 0.034468 0)
(0.0600977 0.0360541 0)
(0.0496223 0.0259518 0)
(0.0434845 -0.000365047 0)
(0.0341504 -0.00436352 0)
(0.0314307 0.0269331 0)
(0.0310725 0.0416414 0)
(0.0321045 0.0530928 0)
(0.0394867 0.0580501 0)
(0.0625865 0.041996 0)
(0.138773 -0.023849 0)
(-0.185907 -0.161169 0)
(0.202578 -0.155219 0)
(-0.215861 -0.0666001 0)
(-0.207889 0.102832 0)
(-0.0727933 -0.0384657 0)
(-0.155649 0.00455557 0)
(-0.125797 0.0378532 0)
(-0.068105 0.061076 0)
(0.0152799 0.0677159 0)
(0.0861637 0.0443237 0)
(0.131741 0.0219043 0)
(0.158799 0.00411484 0)
(0.171609 -0.00993964 0)
(0.175543 -0.0215824 0)
(0.174157 -0.031347 0)
(0.169929 -0.0396295 0)
(0.164282 -0.0467987 0)
(0.158049 -0.0531286 0)
(0.151797 -0.0588379 0)
(0.145865 -0.0641126 0)
(0.140399 -0.0691191 0)
(0.135403 -0.0740009 0)
(0.130812 -0.0788661 0)
(0.126546 -0.0837788 0)
(0.122535 -0.0887471 0)
(0.118755 -0.0936955 0)
(0.115295 -0.0984117 0)
(0.112518 -0.102529 0)
(0.111205 -0.105773 0)
(0.111777 -0.107307 0)
(0.11439 -0.110481 0)
(0.116872 -0.119227 0)
(0.110353 -0.131215 0)
(0.0858466 -0.144442 0)
(0.0707912 -0.127876 0)
(0.0843951 -0.0855264 0)
(0.110445 -0.0568597 0)
(0.138959 -0.0482959 0)
(0.164539 -0.0638412 0)
(0.189197 -0.0949189 0)
(-0.13588 -0.156961 0)
)
;

boundaryField
{
    floor
    {
        type            noSlip;
    }
    ceiling
    {
        type            noSlip;
    }
    sWall
    {
        type            noSlip;
    }
    nWall
    {
        type            noSlip;
    }
    sideWalls
    {
        type            empty;
    }
    glass1
    {
        type            noSlip;
    }
    glass2
    {
        type            noSlip;
    }
    sun
    {
        type            noSlip;
    }
    heatsource1
    {
        type            noSlip;
    }
    heatsource2
    {
        type            noSlip;
    }
    Table_master
    {
        type            noSlip;
    }
    Table_slave
    {
        type            noSlip;
    }
    inlet
    {
        type            fixedValue;
        value           uniform (0.1 0 0);
    }
    outlet
    {
        type            zeroGradient;
    }
}


// ************************************************************************* //
