// -*- C++ -*-
// File generated by PyFoam - sorry for the ugliness

FoamFile
{
 version 2.0;
 format ascii;
 class volVectorField;
 location "800";
 object U;
}

dimensions [ 0 1 -1 0 0 0 0 ];

internalField nonuniform List<vector> 459
(
  (0.0396256 0.0864197 0)
  (-0.167875 0.024463 0)
  (-0.189548 0.0174345 0)
  (-0.219573 0.012578 0)
  (-0.242226 0.00711713 0)
  (-0.256843 0.00137759 0)
  (-0.262329 -0.00472303 0)
  (-0.257159 -0.0112316 0)
  (-0.241453 -0.0180398 0)
  (-0.215826 -0.0242992 0)
  (-0.182351 -0.0291616 0)
  (-0.143763 -0.032222 0)
  (-0.103017 -0.0340348 0)
  (-0.0658629 -0.0365591 0)
  (-0.0501167 -0.0413007 0)
  (0.00779358 0.00652013 0)
  (-0.0196498 -0.0212412 0)
  (0.00854571 -0.028369 0)
  (0.0291832 -0.019934 0)
  (0.0453767 -0.012899 0)
  (0.0561634 -0.00803921 0)
  (0.0618658 -0.00488296 0)
  (0.0643479 -0.00324591 0)
  (0.0653067 -0.00248378 0)
  (0.0657133 -0.0020815 0)
  (0.065872 -0.001818 0)
  (0.0658082 -0.00159696 0)
  (0.0654533 -0.00132841 0)
  (0.064592 -0.000843092 0)
  (0.0626458 0.000250485 0)
  (0.0584023 0.00248704 0)
  (0.0505826 0.00462702 0)
  (0.0452118 0.00565634 0)
  (-0.0201868 0.0220121 0)
  (0.219753 0.177056 0)
  (-0.157889 0.064697 0)
  (-0.152022 0.0506823 0)
  (-0.182888 0.0404777 0)
  (-0.204942 0.0290276 0)
  (-0.219414 0.0164673 0)
  (-0.225335 0.0024254 0)
  (-0.221005 -0.0131616 0)
  (-0.206753 -0.0289635 0)
  (-0.183592 -0.0427352 0)
  (-0.153924 -0.052458 0)
  (-0.120846 -0.0570442 0)
  (-0.0877237 -0.0568118 0)
  (-0.0590415 -0.0533409 0)
  (-0.0407204 -0.0469259 0)
  (-0.025083 -0.025688 0)
  (-0.00912425 0.00624907 0)
  (0.0887135 0.0274544 0)
  (0.0413593 -0.020078 0)
  (0.0444412 -0.0302822 0)
  (0.055285 -0.0244708 0)
  (0.0634104 -0.0158443 0)
  (0.0681171 -0.00840357 0)
  (0.0697029 -0.00296659 0)
  (0.0696714 -9.44634e-05 0)
  (0.0694431 0.00115433 0)
  (0.0694353 0.00175316 0)
  (0.0695184 0.00213186 0)
  (0.0695563 0.00244824 0)
  (0.0695164 0.00288197 0)
  (0.0693455 0.00379224 0)
  (0.0684685 0.00611843 0)
  (0.0642916 0.0126823 0)
  (0.0538067 0.0177237 0)
  (0.0511871 0.019885 0)
  (-0.0625087 0.0479028 0)
  (0.383652 0.264777 0)
  (-0.176603 0.103624 0)
  (-0.113914 0.0819762 0)
  (-0.143648 0.0632894 0)
  (-0.162707 0.0444384 0)
  (-0.175689 0.0242141 0)
  (-0.181218 0.00155475 0)
  (-0.176456 -0.0233798 0)
  (-0.162262 -0.0482086 0)
  (-0.14035 -0.0690209 0)
  (-0.113556 -0.082822 0)
  (-0.0849671 -0.0882739 0)
  (-0.0573416 -0.08586 0)
  (-0.0333366 -0.0768559 0)
  (-0.0153473 -0.0615481 0)
  (-0.00083983 -0.0365978 0)
  (0.0117075 -0.00241116 0)
  (0.116778 -0.0553773 0)
  (0.0725246 -0.0501452 0)
  (0.0676238 -0.0411486 0)
  (0.0708644 -0.0307871 0)
  (0.0729586 -0.0205658 0)
  (0.0737199 -0.012198 0)
  (0.0721008 -0.00990402 0)
  (0.0689627 -0.00714935 0)
  (0.0670409 -0.00569116 0)
  (0.0663798 -0.00487599 0)
  (0.0662769 -0.0043692 0)
  (0.0664104 -0.00399347 0)
  (0.06684 -0.00358225 0)
  (0.0680534 -0.00280229 0)
  (0.0713119 0.000350938 0)
  (0.0689895 0.0183272 0)
  (0.0539062 0.0303536 0)
  (0.0594589 0.036852 0)
  (-0.0993402 0.0745425 0)
  (0.529457 0.33527 0)
  (-0.212554 0.138754 0)
  (-0.0740997 0.108232 0)
  (-0.102007 0.0820855 0)
  (-0.115129 0.0580544 0)
  (-0.124204 0.0320934 0)
  (-0.12734 0.00158309 0)
  (-0.119629 -0.0329719 0)
  (-0.104253 -0.0665395 0)
  (-0.0838173 -0.0932399 0)
  (-0.0612254 -0.109732 0)
  (-0.0390015 -0.11503 0)
  (-0.0186897 -0.110378 0)
  (-0.000906368 -0.0972141 0)
  (0.014015 -0.076909 0)
  (0.0289038 -0.0515129 0)
  (0.0519222 -0.0254725 0)
  (0.083591 -0.000453301 0)
  (0.0928467 -0.0381204 0)
  (0.0774916 -0.04155 0)
  (0.0699435 -0.0347259 0)
  (0.0679493 -0.0272004 0)
  (0.0673332 -0.0192527 0)
  (0.068208 -0.010252 0)
  (0.0718075 -0.00639269 0)
  (0.0773347 -0.00567922 0)
  (0.082269 -0.00522543 0)
  (0.0862629 -0.00467912 0)
  (0.0891391 -0.00373716 0)
  (0.0901129 -0.00220498 0)
  (0.0877574 0.000111656 0)
  (0.0808465 0.00344652 0)
  (0.0664649 0.0083636 0)
  (0.0540568 0.0299708 0)
  (0.0406621 0.0472053 0)
  (0.063534 0.0591311 0)
  (-0.145376 0.0974982 0)
  (0.653007 0.390139 0)
  (-0.254526 0.168153 0)
  (-0.0355299 0.122684 0)
  (-0.0583629 0.0921427 0)
  (-0.0628985 0.0654034 0)
  (-0.0650459 0.0361914 0)
  (-0.0614032 -0.000624003 0)
  (-0.0477278 -0.0442703 0)
  (-0.0309948 -0.0841839 0)
  (-0.0140114 -0.113444 0)
  (0.00153024 -0.129713 0)
  (0.0143041 -0.132741 0)
  (0.0243134 -0.125249 0)
  (0.0321698 -0.109891 0)
  (0.0388299 -0.0890521 0)
  (0.0461873 -0.0656495 0)
  (0.0568207 -0.0448889 0)
  (0.0678136 -0.0364053 0)
  (0.0701975 -0.0416949 0)
  (0.0639733 -0.0384859 0)
  (0.0567815 -0.0315141 0)
  (0.0523151 -0.0247919 0)
  (0.0500486 -0.0185704 0)
  (0.050055 -0.0126956 0)
  (0.0523991 -0.00846508 0)
  (0.0566155 -0.00672787 0)
  (0.0609908 -0.00600089 0)
  (0.0651813 -0.00498232 0)
  (0.0688753 -0.00279039 0)
  (0.0714835 0.0011303 0)
  (0.0716373 0.0066647 0)
  (0.0686867 0.0137701 0)
  (0.0620728 0.0230768 0)
  (0.0539865 0.0398426 0)
  (0.0413535 0.0595589 0)
  (0.0706814 0.0805603 0)
  (-0.0395929 0.110653 0)
  (0.0469906 0.0230507 0)
  (-0.0709988 -0.0385839 0)
  (-0.288644 -0.0623947 0)
  (0.740097 0.436193 0)
  (-0.293715 0.188376 0)
  (-0.00738158 0.117141 0)
  (-0.013006 0.0906931 0)
  (-0.00570933 0.0657104 0)
  (0.00157964 0.0334584 0)
  (0.0202843 -0.0108234 0)
  (0.0397346 -0.0596421 0)
  (0.0549924 -0.0993652 0)
  (0.0649394 -0.125675 0)
  (0.069672 -0.138189 0)
  (0.0700659 -0.138299 0)
  (0.0674657 -0.12854 0)
  (0.0631716 -0.111768 0)
  (0.0585714 -0.0908631 0)
  (0.0550855 -0.0688502 0)
  (0.0537904 -0.049577 0)
  (0.0531305 -0.0377717 0)
  (0.0493505 -0.0338063 0)
  (0.0420772 -0.0302509 0)
  (0.0346012 -0.0254161 0)
  (0.0294116 -0.0207824 0)
  (0.0267236 -0.0167908 0)
  (0.0265317 -0.0133658 0)
  (0.0285541 -0.0111649 0)
  (0.0321315 -0.0107016 0)
  (0.0363421 -0.0106915 0)
  (0.040864 -0.00989974 0)
  (0.0454782 -0.00734267 0)
  (0.0497967 -0.00214778 0)
  (0.0533578 0.00575621 0)
  (0.0546856 0.0155628 0)
  (0.0543129 0.027366 0)
  (0.0540658 0.0431123 0)
  (0.0508769 0.0624242 0)
  (0.0788142 0.0872183 0)
  (0.0484276 0.104855 0)
  (0.0983377 0.0689465 0)
  (0.123363 0.045021 0)
  (-0.140686 -0.0110245 0)
  (0.791517 0.478449 0)
  (-0.311209 0.174439 0)
  (0.0198862 0.063776 0)
  (0.0487749 0.062564 0)
  (0.0676994 0.0518164 0)
  (0.0864795 0.019206 0)
  (0.118831 -0.0314092 0)
  (0.139427 -0.0762473 0)
  (0.148526 -0.108768 0)
  (0.147365 -0.127804 0)
  (0.138013 -0.134267 0)
  (0.123019 -0.130111 0)
  (0.104994 -0.117888 0)
  (0.0862115 -0.100357 0)
  (0.0685532 -0.0802683 0)
  (0.053299 -0.0601339 0)
  (0.0412313 -0.0428492 0)
  (0.0317117 -0.0312034 0)
  (0.0229457 -0.0254109 0)
  (0.0144306 -0.0220943 0)
  (0.00728253 -0.0191775 0)
  (0.00246708 -0.0168048 0)
  (-3.05241e-05 -0.0151157 0)
  (-0.000382807 -0.0140255 0)
  (0.00105269 -0.0137742 0)
  (0.00365615 -0.0144028 0)
  (0.00686948 -0.0150401 0)
  (0.0105732 -0.0147694 0)
  (0.0148729 -0.0126712 0)
  (0.0199053 -0.00763083 0)
  (0.0268537 0.00135486 0)
  (0.0332204 0.0124714 0)
  (0.0387522 0.0246756 0)
  (0.0459208 0.0388173 0)
  (0.0529249 0.0546393 0)
  (0.0785337 0.0748593 0)
  (0.0902398 0.0809881 0)
  (0.127385 0.0517407 0)
  (0.170172 0.0422686 0)
  (-0.0308879 0.0970392 0)
  (0.897828 0.480932 0)
  (-0.066932 0.154961 0)
  (0.111576 -0.0169569 0)
  (0.18527 -0.0346231 0)
  (0.202197 -0.0360041 0)
  (0.230053 -0.0552685 0)
  (0.251152 -0.0785816 0)
  (0.257288 -0.09821 0)
  (0.247699 -0.111045 0)
  (0.225529 -0.116086 0)
  (0.194943 -0.11362 0)
  (0.160003 -0.104817 0)
  (0.124247 -0.0912452 0)
  (0.090441 -0.0747489 0)
  (0.0605745 -0.0573764 0)
  (0.0354869 -0.0408258 0)
  (0.0160523 -0.0273677 0)
  (0.00171948 -0.0189221 0)
  (-0.00878128 -0.015359 0)
  (-0.0164956 -0.0141254 0)
  (-0.0222558 -0.0135027 0)
  (-0.0261859 -0.0133015 0)
  (-0.0285947 -0.0135196 0)
  (-0.0297515 -0.0141143 0)
  (-0.029971 -0.0151133 0)
  (-0.029656 -0.0163988 0)
  (-0.0290896 -0.0175427 0)
  (-0.0282641 -0.0180408 0)
  (-0.0269272 -0.0173641 0)
  (-0.0245888 -0.0148966 0)
  (-0.0200256 -0.00984406 0)
  (-0.00864142 -0.00145334 0)
  (0.000409912 0.00875205 0)
  (0.0118511 0.0181561 0)
  (0.02352 0.0260821 0)
  (0.0452344 0.034878 0)
  (0.0634376 0.0262127 0)
  (0.0815493 -0.00584688 0)
  (0.143232 0.0460828 0)
  (-0.464205 0.225325 0)
  (1.0478 0.42805 0)
  (0.497251 0.279852 0)
  (0.514227 0.180066 0)
  (0.541509 0.115919 0)
  (0.521005 0.0738168 0)
  (0.48134 0.0326851 0)
  (0.436023 -0.00597651 0)
  (0.384942 -0.0364279 0)
  (0.328173 -0.0558728 0)
  (0.268368 -0.0645271 0)
  (0.20901 -0.06456 0)
  (0.153012 -0.0586915 0)
  (0.102593 -0.0490962 0)
  (0.059337 -0.0375645 0)
  (0.0241963 -0.0259942 0)
  (-0.00388777 -0.0157678 0)
  (-0.0223242 -0.00968433 0)
  (-0.0337533 -0.00754289 0)
  (-0.0414832 -0.007734 0)
  (-0.0471932 -0.00879121 0)
  (-0.05167 -0.00992933 0)
  (-0.0552778 -0.0110561 0)
  (-0.0583417 -0.0122043 0)
  (-0.0611328 -0.0133954 0)
  (-0.0639282 -0.0146251 0)
  (-0.0670301 -0.0157605 0)
  (-0.0707 -0.0164795 0)
  (-0.0751495 -0.0163302 0)
  (-0.0806324 -0.0147569 0)
  (-0.0875712 -0.0110765 0)
  (-0.0965887 -0.00445884 0)
  (-0.107829 0.0056571 0)
  (-0.118627 0.0185537 0)
  (-0.135915 0.0344168 0)
  (-0.163749 0.0529626 0)
  (-0.204542 0.072047 0)
  (-0.262368 0.0861668 0)
  (-0.327068 0.0923824 0)
  (-0.399063 0.0915745 0)
  (-0.668418 0.0841934 0)
  (-0.231321 -0.00381785 0)
  (0.120486 0.00985942 0)
  (0.215176 -0.00978217 0)
  (0.200757 -0.0206691 0)
  (0.183161 -0.0238949 0)
  (0.164134 -0.0243264 0)
  (0.137346 -0.0227012 0)
  (0.105236 -0.0193822 0)
  (0.0709079 -0.0149209 0)
  (0.0357978 -0.00988162 0)
  (0.00255189 -0.00524164 0)
  (-0.0245742 -0.00211944 0)
  (-0.0429251 -0.00108979 0)
  (-0.0551711 -0.00178572 0)
  (-0.0625067 -0.00406285 0)
  (-0.0673573 -0.00701111 0)
  (-0.0713151 -0.00976237 0)
  (-0.074849 -0.0119324 0)
  (-0.0781142 -0.0135844 0)
  (-0.0814029 -0.0148353 0)
  (-0.0849645 -0.0158029 0)
  (-0.0889955 -0.0165474 0)
  (-0.0936653 -0.0170527 0)
  (-0.0991052 -0.017183 0)
  (-0.105351 -0.0166387 0)
  (-0.112285 -0.0149521 0)
  (-0.119573 -0.0115201 0)
  (-0.126595 -0.00568931 0)
  (-0.132503 0.00320329 0)
  (-0.136503 0.0149601 0)
  (-0.139501 0.0305925 0)
  (-0.142186 0.0504445 0)
  (-0.145894 0.0732723 0)
  (-0.151387 0.0942175 0)
  (-0.155126 0.101574 0)
  (-0.137196 0.0733363 0)
  (-0.0817714 -0.0326613 0)
  (-0.290544 -0.230489 0)
  (-0.010912 0.210288 0)
  (0.0291749 0.0815252 0)
  (-0.0216757 0.0253298 0)
  (-0.029054 0.0234027 0)
  (-0.0341063 0.0230388 0)
  (-0.0422714 0.0207199 0)
  (-0.0521899 0.0201961 0)
  (-0.0642265 0.0225268 0)
  (-0.0754923 0.0263352 0)
  (-0.0835352 0.0297911 0)
  (-0.0895831 0.032408 0)
  (-0.0934335 0.0342049 0)
  (-0.0952384 0.0360114 0)
  (-0.0956438 0.0383449 0)
  (-0.0953186 0.0408604 0)
  (-0.0950751 0.0429791 0)
  (-0.0953039 0.0436747 0)
  (-0.096131 0.0429787 0)
  (-0.0975309 0.0422331 0)
  (-0.0994461 0.041478 0)
  (-0.101814 0.0405741 0)
  (-0.104596 0.0394191 0)
  (-0.107764 0.0379742 0)
  (-0.111275 0.0362717 0)
  (-0.115022 0.0343951 0)
  (-0.118821 0.0324375 0)
  (-0.12239 0.0304511 0)
  (-0.125196 0.0283458 0)
  (-0.126139 0.0276331 0)
  (-0.123703 0.0304249 0)
  (-0.116235 0.0379809 0)
  (-0.102604 0.0513636 0)
  (-0.0833789 0.0702574 0)
  (-0.0600332 0.0893694 0)
  (-0.0358266 0.100042 0)
  (0.00856596 0.0818255 0)
  (0.144257 0.00448534 0)
  (-0.206774 -0.144064 0)
  (-0.100523 -0.35204 0)
  (-0.450588 -0.136251 0)
  (-0.335657 0.0542276 0)
  (-0.271875 -0.0483516 0)
  (-0.226115 -0.0626808 0)
  (-0.205667 -0.0584875 0)
  (-0.193648 -0.0543717 0)
  (-0.184767 -0.052024 0)
  (-0.176808 -0.0507212 0)
  (-0.168342 -0.0505078 0)
  (-0.158714 -0.0522708 0)
  (-0.148133 -0.0566736 0)
  (-0.137475 -0.064113 0)
  (-0.127719 -0.0746158 0)
  (-0.119689 -0.0871448 0)
  (-0.113719 -0.100279 0)
  (-0.109731 -0.112603 0)
  (-0.107459 -0.122484 0)
  (-0.106703 -0.128818 0)
  (-0.107356 -0.131837 0)
  (-0.10912 -0.132974 0)
  (-0.111554 -0.132616 0)
  (-0.114369 -0.130998 0)
  (-0.11738 -0.128227 0)
  (-0.120447 -0.12434 0)
  (-0.12342 -0.119322 0)
  (-0.126066 -0.113101 0)
  (-0.128032 -0.105502 0)
  (-0.128844 -0.0961874 0)
  (-0.127901 -0.0846157 0)
  (-0.124176 -0.0717854 0)
  (-0.115426 -0.0577801 0)
  (-0.0984888 -0.0422478 0)
  (-0.0711953 -0.0242296 0)
  (-0.0352634 -0.00296244 0)
  (0.0266224 0.024131 0)
  (0.0783536 0.024211 0)
  (0.128254 0.00075678 0)
  (0.179986 -0.0426914 0)
  (-0.168735 -0.113386 0)
)
;

boundaryField
{
  floor
  {
    type noSlip;
  }
  ceiling
  {
    type noSlip;
  }
  sWall
  {
    type noSlip;
  }
  nWall
  {
    type noSlip;
  }
  sideWalls
  {
    type empty;
  }
  glass1
  {
    type noSlip;
  }
  glass2
  {
    type noSlip;
  }
  sun
  {
    type noSlip;
  }
  heatsource1
  {
    type noSlip;
  }
  heatsource2
  {
    type noSlip;
  }
  Table_master
  {
    type noSlip;
  }
  Table_slave
  {
    type noSlip;
  }
  inlet
  {
    type fixedValue;
    value uniform (0.277164 -0.114805 0);
  }
  outlet
  {
    type zeroGradient;
  }
} 	// ************************************************************************* //

