/*--------------------------------*- C++ -*----------------------------------*\
  =========                 |
  \\      /  F ield         | OpenFOAM: The Open Source CFD Toolbox
   \\    /   O peration     | Website:  https://openfoam.org
    \\  /    A nd           | Version:  6
     \\/     M anipulation  |
\*---------------------------------------------------------------------------*/
FoamFile
{
    version     2.0;
    format      ascii;
    class       volScalarField;
    location    "200";
    object      epsilon;
}
// * * * * * * * * * * * * * * * * * * * * * * * * * * * * * * * * * * * * * //

dimensions      [0 2 -3 0 0 0 0];

internalField   nonuniform List<scalar> 
459
(
0.000390135
0.000490579
0.000488949
0.000553195
0.000617613
0.000680333
0.000742715
0.000807416
0.000870517
0.000913566
0.000924973
0.000895376
0.00082554
0.000732183
0.000637543
2.8281e-05
4.34582e-05
4.55864e-05
3.71311e-05
3.09207e-05
2.58996e-05
2.07676e-05
1.68924e-05
1.39014e-05
1.1641e-05
9.94267e-06
8.65324e-06
7.71704e-06
6.99407e-06
6.40149e-06
5.94856e-06
6.28911e-06
1.21129e-05
9.41474e-06
0.00111402
0.00171822
0.000461722
0.000423368
0.00043334
0.000450945
0.00047575
0.000511423
0.000557175
0.00059999
0.000625371
0.000619176
0.000576794
0.000514844
0.000491846
0.000640217
0.000280909
8.60328e-05
8.08332e-05
6.00587e-05
4.60675e-05
3.72985e-05
3.19606e-05
2.88893e-05
2.43836e-05
2.03789e-05
1.72484e-05
1.4822e-05
1.28761e-05
1.12397e-05
9.8613e-06
8.65971e-06
7.53215e-06
9.32032e-06
5.24313e-05
3.14512e-05
0.0021673
0.00455979
0.000654433
0.000420837
0.00041721
0.000442943
0.000482802
0.000538119
0.000607056
0.000674038
0.000717073
0.000719085
0.000676098
0.000601642
0.000529177
0.00049975
0.00072695
0.00027916
0.000146295
8.9314e-05
6.26408e-05
4.91348e-05
4.47951e-05
8.4976e-05
5.72785e-05
4.1891e-05
3.24426e-05
2.61342e-05
2.163e-05
1.82392e-05
1.55988e-05
1.3495e-05
1.12291e-05
1.45517e-05
0.000103454
5.55592e-05
0.00365899
0.00958912
0.00116186
0.00046088
0.000422218
0.000455192
0.00051033
0.000588609
0.000689528
0.00078301
0.000835915
0.00083552
0.000784252
0.00069468
0.000587096
0.000486362
0.000446635
0.000605391
0.000300775
0.000148883
9.26117e-05
6.72104e-05
5.47566e-05
5.30681e-05
0.000121408
9.76958e-05
9.21247e-05
9.3032e-05
9.50751e-05
9.40513e-05
8.63555e-05
7.40168e-05
6.15246e-05
4.32693e-05
7.41745e-05
0.000266082
7.04573e-05
0.00570877
0.0168287
0.00240023
0.000616257
0.000464812
0.000486684
0.000553962
0.000669883
0.000829531
0.000953313
0.00100287
0.000985627
0.000914631
0.000802267
0.000661377
0.0005123
0.000384303
0.000295967
0.000191315
0.000125746
8.66183e-05
6.58683e-05
5.57122e-05
5.23914e-05
5.77942e-05
6.01127e-05
6.41366e-05
6.96902e-05
7.52302e-05
7.80143e-05
7.46882e-05
6.45927e-05
5.59545e-05
4.83323e-05
5.70111e-05
0.000144917
0.000174881
0.000135139
0.000196014
0.000302628
0.00849995
0.0244059
0.00535905
0.00130447
0.000757479
0.000670343
0.000706322
0.000878141
0.00111288
0.00123275
0.00124349
0.0011849
0.00107704
0.000930392
0.000755547
0.000570454
0.000399955
0.000263099
0.00017048
0.000113167
8e-05
6.34594e-05
5.65923e-05
5.54818e-05
5.92721e-05
6.58955e-05
7.53718e-05
8.77855e-05
0.000102184
0.000115693
0.00012204
0.000113255
9.10862e-05
7.36066e-05
6.77718e-05
9.56811e-05
0.000127778
0.000133095
0.000376831
0.00039321
0.0116616
0.0287738
0.011018
0.00438626
0.0025259
0.00175629
0.0014875
0.00160003
0.0017038
0.00168071
0.00158416
0.00144585
0.00127624
0.00107835
0.000857746
0.000630413
0.000423001
0.000260578
0.000157194
9.95636e-05
7.2585e-05
6.15935e-05
5.87305e-05
6.07391e-05
6.6803e-05
7.69783e-05
9.21634e-05
0.00011345
0.000141176
0.000174668
0.000206691
0.000228698
0.000212017
0.000187284
0.000188284
0.000235211
0.00033143
0.000452644
0.000802186
0.000800911
0.0122901
0.0311626
0.0176679
0.0125691
0.00874956
0.00592431
0.00430916
0.00339463
0.00278189
0.00235647
0.00203432
0.00175607
0.00149008
0.00122009
0.000941349
0.000665528
0.000422334
0.000240228
0.000132084
8.56526e-05
6.66957e-05
6.07896e-05
6.15935e-05
6.67387e-05
7.57756e-05
9.01749e-05
0.000112426
0.000144803
0.000189185
0.000247221
0.000319837
0.000408573
0.000515689
0.000616133
0.000836361
0.00135065
0.00224818
0.00310696
0.00703314
0.00168588
0.0112472
0.0185186
0.0142063
0.0108682
0.0084583
0.00656081
0.00514247
0.00411525
0.00338351
0.00284743
0.00240876
0.00201435
0.0016484
0.00129991
0.000959296
0.000633498
0.000362857
0.000183791
0.000106118
7.54321e-05
6.46701e-05
6.35328e-05
6.79029e-05
7.65584e-05
8.83235e-05
0.000105952
0.000133217
0.000173024
0.000228761
0.000305063
0.000407445
0.000541844
0.000714057
0.000931487
0.00119738
0.00150656
0.00179552
0.00202287
0.00226045
0.00135048
0.0035691
0.00491988
0.00532486
0.00516139
0.00477662
0.00431785
0.00379155
0.00319496
0.00259609
0.00204839
0.00158257
0.00118049
0.00081152
0.000459018
0.000247571
0.00014657
0.000103284
8.63927e-05
8.26579e-05
8.6526e-05
9.48821e-05
0.000107505
0.000119915
0.000136733
0.000162527
0.000198459
0.00024675
0.000311639
0.00039901
0.000517376
0.000676285
0.000879341
0.00112069
0.00139285
0.00167823
0.00199126
0.00149428
0.000847923
0.00373597
0.00656571
0.00642918
0.00577922
0.00507361
0.0042903
0.00350895
0.00268427
0.00196631
0.00139288
0.000934903
0.000594144
0.000392186
0.000270057
0.000207321
0.000175384
0.000161035
0.000155966
0.000157674
0.000168559
0.000191306
0.000206189
0.000203348
0.000208424
0.000218294
0.000233144
0.00025639
0.000293008
0.000349874
0.000439301
0.000571199
0.000746687
0.000956831
0.00117524
0.00139113
0.00135714
0.000778097
0.000817108
0.00264111
0.00309414
0.00348214
0.00415426
0.00419184
0.00384396
0.00317349
0.00228098
0.00145046
0.00102149
0.000780156
0.00060272
0.000473128
0.000381764
0.000306913
0.000251037
0.000212178
0.000186812
0.000171209
0.00016284
0.00015951
0.000157548
0.000143677
0.000122916
0.000126617
0.000139193
0.000155238
0.00017403
0.000197756
0.000230589
0.000280797
0.000354335
0.000456285
0.000592506
0.000778089
0.000909303
0.000875757
0.000669481
0.000495211
0.000665714
)
;

boundaryField
{
    floor
    {
        Cmu             0.09;
        kappa           0.41;
        E               9.8;
        type            epsilonWallFunction;
        value           nonuniform List<scalar> 
29
(
0.000637543
2.8281e-05
4.34582e-05
4.55864e-05
3.71311e-05
3.09207e-05
2.58996e-05
2.07676e-05
1.68924e-05
1.39014e-05
1.1641e-05
9.94267e-06
8.65324e-06
7.71704e-06
6.99407e-06
6.40149e-06
5.94856e-06
6.28911e-06
1.21129e-05
9.41474e-06
9.41474e-06
3.14512e-05
5.55592e-05
7.04573e-05
0.000637543
2.8281e-05
8.60328e-05
0.00027916
0.000605391
)
;
    }
    ceiling
    {
        Cmu             0.09;
        kappa           0.41;
        E               9.8;
        type            epsilonWallFunction;
        value           nonuniform List<scalar> 
43
(
0.00264111
0.00309414
0.00348214
0.00415426
0.00419184
0.00384396
0.00317349
0.00228098
0.00145046
0.00102149
0.000780156
0.00060272
0.000473128
0.000381764
0.000306913
0.000251037
0.000212178
0.000186812
0.000171209
0.00016284
0.00015951
0.000157548
0.000143677
0.000122916
0.000126617
0.000139193
0.000155238
0.00017403
0.000197756
0.000230589
0.000280797
0.000354335
0.000456285
0.000592506
0.000778089
0.000909303
0.000875757
0.000669481
0.000495211
0.000665714
0.0112472
0.0185186
0.00373597
)
;
    }
    sWall
    {
        Cmu             0.09;
        kappa           0.41;
        E               9.8;
        type            epsilonWallFunction;
        value           uniform 0.00264111;
    }
    nWall
    {
        Cmu             0.09;
        kappa           0.41;
        E               9.8;
        type            epsilonWallFunction;
        value           nonuniform List<scalar> 6(0.000302628 0.00039321 0.000800911 0.000847923 0.000817108 0.000665714);
    }
    sideWalls
    {
        type            empty;
    }
    glass1
    {
        Cmu             0.09;
        kappa           0.41;
        E               9.8;
        type            epsilonWallFunction;
        value           nonuniform List<scalar> 9(0.000390135 0.00111402 0.0021673 0.00365899 0.00570877 0.00849995 0.0116616 0.0122901 0.0112472);
    }
    glass2
    {
        Cmu             0.09;
        kappa           0.41;
        E               9.8;
        type            epsilonWallFunction;
        value           nonuniform List<scalar> 2(0.00168588 0.00135048);
    }
    sun
    {
        Cmu             0.09;
        kappa           0.41;
        E               9.8;
        type            epsilonWallFunction;
        value           nonuniform List<scalar> 
14
(
0.000390135
0.000490579
0.000488949
0.000553195
0.000617613
0.000680333
0.000742715
0.000807416
0.000870517
0.000913566
0.000924973
0.000895376
0.00082554
0.000732183
)
;
    }
    heatsource1
    {
        Cmu             0.09;
        kappa           0.41;
        E               9.8;
        type            epsilonWallFunction;
        value           nonuniform List<scalar> 3(0.000135139 0.000196014 0.000302628);
    }
    heatsource2
    {
        Cmu             0.09;
        kappa           0.41;
        E               9.8;
        type            epsilonWallFunction;
        value           nonuniform List<scalar> 4(0.000640217 0.000280909 0.000280909 0.00072695);
    }
    Table_master
    {
        Cmu             0.09;
        kappa           0.41;
        E               9.8;
        type            epsilonWallFunction;
        value           nonuniform List<scalar> 9(8.4976e-05 5.72785e-05 4.1891e-05 3.24426e-05 2.61342e-05 2.163e-05 1.82392e-05 1.55988e-05 1.3495e-05);
    }
    Table_slave
    {
        Cmu             0.09;
        kappa           0.41;
        E               9.8;
        type            epsilonWallFunction;
        value           nonuniform List<scalar> 9(0.000121408 9.76958e-05 9.21247e-05 9.3032e-05 9.50751e-05 9.40513e-05 8.63555e-05 7.40168e-05 6.15246e-05);
    }
    inlet
    {
        type            turbulentMixingLengthDissipationRateInlet;
        mixingLength    0.01;
        phi             phi;
        k               k;
        value           uniform 0.00129426;
    }
    outlet
    {
        type            zeroGradient;
    }
}


// ************************************************************************* //
