/*--------------------------------*- C++ -*----------------------------------*\
  =========                 |
  \\      /  F ield         | OpenFOAM: The Open Source CFD Toolbox
   \\    /   O peration     | Website:  https://openfoam.org
    \\  /    A nd           | Version:  6
     \\/     M anipulation  |
\*---------------------------------------------------------------------------*/
FoamFile
{
    version     2.0;
    format      ascii;
    class       volScalarField;
    location    "200";
    object      nut;
}
// * * * * * * * * * * * * * * * * * * * * * * * * * * * * * * * * * * * * * //

dimensions      [0 2 -1 0 0 0 0];

internalField   nonuniform List<scalar> 
459
(
0.00103289
0.00111483
0.00111357
0.00116034
0.00120372
0.00124315
0.00128002
0.00131615
0.00134957
0.00137145
0.00137714
0.0013623
0.00132593
0.00127395
0.00121653
0.000430669
0.00049695
0.0005049
0.000471501
0.000443586
0.000418139
0.000388455
0.000362601
0.000339786
0.000320264
0.000303862
0.000290115
0.000279254
0.000270254
0.000262404
0.000256074
0.000260909
0.000324758
0.000298558
0.00146541
0.00344649
0.0031972
0.00370148
0.0041399
0.00458686
0.00501364
0.00537257
0.0056467
0.00587831
0.00602507
0.00601836
0.00575043
0.00501152
0.00338405
0.0012182
0.000925833
0.000624048
0.000942119
0.00113083
0.0013393
0.00151519
0.00155641
0.00129012
0.00111138
0.000990386
0.00090873
0.000850782
0.000805814
0.000763727
0.000718842
0.000679373
0.000652976
0.000630807
0.000901188
0.000446262
0.00182941
0.00480336
0.00392381
0.00519544
0.00573773
0.00610539
0.00637504
0.00657359
0.00673293
0.00690587
0.00707461
0.00719362
0.0071948
0.00697428
0.00631547
0.00468678
0.00127102
0.000923742
0.00145126
0.00175006
0.00207328
0.00233056
0.00218152
0.000621376
0.000544815
0.000490862
0.000450778
0.000419438
0.000393815
0.000372064
0.000353173
0.000336527
0.00036721
0.000453458
0.000936127
0.00053947
0.00217838
0.00632785
0.00398637
0.00565248
0.006328
0.00651714
0.00654758
0.00653628
0.00655366
0.00665316
0.00682746
0.00703925
0.00723712
0.00735364
0.00728378
0.00677021
0.00517639
0.00119547
0.00198401
0.00257968
0.00296072
0.00325458
0.00340851
0.00292792
0.000699782
0.000650917
0.000638356
0.000640501
0.000645209
0.000642934
0.000624939
0.000593644
0.000558186
0.000604909
0.00085116
0.00128897
0.000583939
0.00252658
0.00822016
0.0045581
0.00543303
0.00642092
0.00659018
0.0064699
0.00628113
0.00617121
0.00621855
0.00638993
0.00664487
0.00693498
0.00718841
0.0073132
0.00717105
0.00655927
0.00518815
0.00462425
0.00440725
0.00435458
0.00442056
0.00443947
0.00415747
0.00336826
0.0031854
0.00313441
0.0031056
0.0030592
0.00296941
0.00281494
0.00250778
0.00206579
0.001646
0.00128857
0.00124118
0.00127838
0.000725546
0.000821236
0.000949174
0.0028851
0.0102129
0.00647106
0.00534301
0.00596292
0.00633858
0.00638152
0.00613641
0.00593298
0.00594237
0.0060961
0.00635575
0.00667176
0.00696299
0.00713093
0.00708503
0.00676576
0.00615655
0.00564142
0.00532615
0.0051961
0.00514794
0.0050111
0.00469869
0.00427829
0.00401913
0.00385419
0.00373725
0.00363972
0.00353535
0.00341158
0.00324112
0.00292708
0.00250763
0.00203619
0.00160354
0.00153974
0.00136899
0.00173029
0.00103574
0.00320588
0.011619
0.00926579
0.00693223
0.00615531
0.00601319
0.00614861
0.00607563
0.0059191
0.00586715
0.00596552
0.00619968
0.00651118
0.00680809
0.00698122
0.00694126
0.00666753
0.00624165
0.00588547
0.00568933
0.00554508
0.00532235
0.00497015
0.00454241
0.00415266
0.00388693
0.00373092
0.00365197
0.00361777
0.00359871
0.00358545
0.0035594
0.00346383
0.00319027
0.00282499
0.00253484
0.00245434
0.00245863
0.00240362
0.0013129
0.00326249
0.0104259
0.00935048
0.00868588
0.00784788
0.00709665
0.00669552
0.00630968
0.00596025
0.00582294
0.00590799
0.00614647
0.00645666
0.00674029
0.00688459
0.00680063
0.00649265
0.00610902
0.00587626
0.00567517
0.0053736
0.00494013
0.00443563
0.00396765
0.0036407
0.00347652
0.00342955
0.00344795
0.00349851
0.003569
0.00366174
0.00379307
0.00397819
0.00414415
0.00420837
0.00449157
0.00500887
0.00520489
0.00536315
0.0016826
0.00316748
0.0037403
0.00405247
0.004397
0.00473829
0.00491144
0.00495495
0.0050109
0.00518614
0.00548318
0.00583238
0.00617693
0.00649412
0.00672743
0.00678712
0.00660424
0.00623154
0.0058986
0.00559915
0.00521458
0.0047043
0.00415735
0.00367774
0.00330714
0.00314055
0.00314521
0.00322231
0.0033034
0.00336547
0.00340871
0.00343821
0.00345667
0.00346374
0.00345723
0.00342778
0.00333075
0.00310296
0.00277601
0.00247573
0.00156266
0.00131221
0.00256834
0.00362837
0.00439634
0.00499521
0.00553186
0.00597365
0.00627207
0.00642211
0.00650171
0.00658921
0.00660988
0.00649046
0.00625377
0.00585144
0.00541007
0.00491483
0.00436741
0.00384165
0.00339509
0.00304608
0.00280181
0.00278194
0.00294484
0.00314634
0.00329868
0.00339596
0.00346069
0.0035149
0.00357522
0.00363827
0.00368003
0.00368281
0.00364026
0.00355413
0.00347379
0.00287144
0.00133807
0.00219339
0.00431285
0.00519642
0.00571872
0.00610989
0.00641586
0.00658353
0.00632561
0.00595196
0.00570128
0.00564518
0.0054293
0.00512069
0.00486529
0.004589
0.00424053
0.00386482
0.00351289
0.00321098
0.00297335
0.00280291
0.00257415
0.00249386
0.00262547
0.00280623
0.00295195
0.00306565
0.00316592
0.00325192
0.00336215
0.00351289
0.00366504
0.00378061
0.00383538
0.00381344
0.00327383
0.00227496
0.00132173
0.00195406
0.00205994
0.00214267
0.00227255
0.00227943
0.00221453
0.00207747
0.00186088
0.00159995
0.00142328
0.00130089
0.00119367
0.00110125
0.00102533
0.000953496
0.000891789
0.000843219
0.000808215
0.000785076
0.000772083
0.000766791
0.000763646
0.000740493
0.000702933
0.000709956
0.000732744
0.000759874
0.000789358
0.000823697
0.000866957
0.000925785
0.00100042
0.0010884
0.00118742
0.00130031
0.00136966
0.00135263
0.00123679
0.00111853
0.00123447
)
;

boundaryField
{
    floor
    {
        type            nutkWallFunction;
        Cmu             0.09;
        kappa           0.41;
        E               9.8;
        value           nonuniform List<scalar> 
29
(
0.000145923
5.07852e-05
5.9339e-05
6.03578e-05
5.6079e-05
5.24724e-05
4.91594e-05
4.52627e-05
4.1838e-05
3.87896e-05
3.61598e-05
3.39338e-05
3.20556e-05
3.05633e-05
2.93203e-05
2.82314e-05
2.73499e-05
2.8019e-05
3.67467e-05
3.31943e-05
3.31942e-05
5.28076e-05
6.47408e-05
7.03407e-05
0.000145923
5.07851e-05
7.53547e-05
0.000111728
0.00014352
)
;
    }
    ceiling
    {
        type            nutkWallFunction;
        Cmu             0.09;
        kappa           0.41;
        E               9.8;
        value           nonuniform List<scalar> 
43
(
0.000228326
0.00023985
0.000248811
0.000262842
0.000263597
0.000256629
0.000241818
0.000218192
0.000189342
0.000169517
0.000155619
0.000143314
0.000132597
0.000123718
0.000115246
0.000107911
0.000102097
9.78837e-05
9.50867e-05
9.35119e-05
9.28694e-05
9.24866e-05
8.96754e-05
8.50871e-05
8.59443e-05
8.87276e-05
9.20306e-05
9.56053e-05
9.97485e-05
0.000104939
0.000111949
0.000120768
0.000131067
0.000142547
0.000155505
0.0001634
0.000161463
0.000148228
0.000134572
0.000147964
0.000357537
0.000416515
0.000254221
)
;
    }
    sWall
    {
        type            nutkWallFunction;
        Cmu             0.09;
        kappa           0.41;
        E               9.8;
        value           uniform 0.000228387;
    }
    nWall
    {
        type            nutkWallFunction;
        Cmu             0.09;
        kappa           0.41;
        E               9.8;
        value           nonuniform List<scalar> 6(0.000114724 0.000124919 0.000156948 0.000159828 0.00015796 0.000147976);
    }
    sideWalls
    {
        type            empty;
    }
    glass1
    {
        type            nutkWallFunction;
        Cmu             0.09;
        kappa           0.41;
        E               9.8;
        value           nonuniform List<scalar> 9(0.000124688 0.000174475 0.000215078 0.000253177 0.000290545 0.000328457 0.000361962 0.000367848 0.000357996);
    }
    glass2
    {
        type            nutkWallFunction;
        Cmu             0.09;
        kappa           0.41;
        E               9.8;
        value           nonuniform List<scalar> 2(0.00019862 0.000185246);
    }
    sun
    {
        type            nutkWallFunction;
        Cmu             0.09;
        kappa           0.41;
        E               9.8;
        value           nonuniform List<scalar> 
14
(
0.000124597
0.00013416
0.000134015
0.000139439
0.000144449
0.000148984
0.000153211
0.000157339
0.000161147
0.000163634
0.00016428
0.000162593
0.000158453
0.000152515
)
;
    }
    heatsource1
    {
        type            nutkWallFunction;
        Cmu             0.09;
        kappa           0.41;
        E               9.8;
        value           nonuniform List<scalar> 3(8.78516e-05 9.94546e-05 0.000114718);
    }
    heatsource2
    {
        type            nutkWallFunction;
        Cmu             0.09;
        kappa           0.41;
        E               9.8;
        value           nonuniform List<scalar> 4(0.000146112 0.000111959 0.000111959 0.000152165);
    }
    Table_master
    {
        type            nutkWallFunction;
        Cmu             0.09;
        kappa           0.41;
        E               9.8;
        value           nonuniform List<scalar> 9(7.50355e-05 6.54353e-05 5.85711e-05 5.34108e-05 4.93362e-05 4.59762e-05 4.31022e-05 4.05889e-05 3.836e-05);
    }
    Table_slave
    {
        type            nutkWallFunction;
        Cmu             0.09;
        kappa           0.41;
        E               9.8;
        value           nonuniform List<scalar> 9(8.47265e-05 7.87034e-05 7.71421e-05 7.74028e-05 7.79813e-05 7.76949e-05 7.54576e-05 7.15541e-05 6.71006e-05);
    }
    inlet
    {
        type            calculated;
        value           uniform 0.000234787;
    }
    outlet
    {
        type            calculated;
        value           nonuniform List<scalar> 2(0.00195406 0.00205994);
    }
}


// ************************************************************************* //
