// -*- C++ -*-
// File generated by PyFoam - sorry for the ugliness

FoamFile
{
 version 2.0;
 format ascii;
 class volScalarField;
 location "200";
 object T;
}

dimensions [ 0 0 0 1 0 0 0 ];

internalField nonuniform List<scalar> 459
(
  302.871
  302.59
  302.585
  302.589
  302.592
  302.594
  302.596
  302.596
  302.595
  302.592
  302.586
  302.577
  302.568
  302.559
  302.554
  302.33
  302.352
  302.363
  302.343
  302.321
  302.298
  302.271
  302.245
  302.22
  302.197
  302.176
  302.157
  302.14
  302.125
  302.111
  302.098
  302.086
  302.076
  302.094
  303.063
  302.628
  302.609
  302.619
  302.63
  302.64
  302.647
  302.651
  302.653
  302.648
  302.635
  302.617
  302.597
  302.576
  302.556
  302.537
  302.514
  302.406
  302.417
  302.416
  302.404
  302.387
  302.365
  302.331
  302.297
  302.264
  302.233
  302.204
  302.177
  302.152
  302.129
  302.108
  302.088
  302.071
  302.057
  302.079
  303.259
  302.676
  302.634
  302.649
  302.669
  302.688
  302.704
  302.716
  302.722
  302.716
  302.697
  302.667
  302.634
  302.603
  302.579
  302.564
  302.552
  302.543
  302.52
  302.499
  302.478
  302.459
  302.441
  302.406
  302.368
  302.333
  302.299
  302.268
  302.239
  302.211
  302.183
  302.158
  302.145
  302.126
  302.095
  302.086
  303.452
  302.735
  302.658
  302.673
  302.702
  302.733
  302.762
  302.786
  302.8
  302.794
  302.765
  302.719
  302.67
  302.627
  302.596
  302.578
  302.568
  302.568
  302.559
  302.546
  302.531
  302.516
  302.502
  302.492
  302.49
  302.491
  302.493
  302.496
  302.499
  302.499
  302.495
  302.488
  302.476
  302.413
  302.306
  302.106
  302.093
  303.636
  302.813
  302.689
  302.692
  302.724
  302.764
  302.807
  302.848
  302.876
  302.873
  302.832
  302.767
  302.7
  302.645
  302.607
  302.587
  302.578
  302.573
  302.569
  302.562
  302.552
  302.542
  302.534
  302.53
  302.532
  302.536
  302.541
  302.545
  302.546
  302.545
  302.539
  302.527
  302.508
  302.465
  302.379
  302.23
  302.158
  302.251
  302.319
  302.341
  303.799
  302.917
  302.758
  302.728
  302.749
  302.786
  302.836
  302.895
  302.943
  302.939
  302.882
  302.8
  302.718
  302.655
  302.614
  302.594
  302.586
  302.583
  302.581
  302.577
  302.571
  302.565
  302.562
  302.562
  302.566
  302.57
  302.573
  302.574
  302.573
  302.57
  302.563
  302.551
  302.531
  302.496
  302.434
  302.335
  302.261
  302.257
  302.269
  302.299
  303.948
  303.089
  302.932
  302.869
  302.85
  302.86
  302.896
  302.959
  302.999
  302.98
  302.906
  302.809
  302.718
  302.651
  302.612
  302.596
  302.593
  302.595
  302.596
  302.595
  302.592
  302.589
  302.589
  302.591
  302.594
  302.596
  302.595
  302.592
  302.588
  302.583
  302.575
  302.564
  302.545
  302.517
  302.473
  302.413
  302.365
  302.343
  302.332
  302.342
  304.174
  303.532
  303.371
  303.245
  303.148
  303.093
  303.081
  303.096
  303.078
  303.002
  302.89
  302.774
  302.682
  302.624
  302.598
  302.595
  302.602
  302.611
  302.616
  302.616
  302.616
  302.615
  302.616
  302.618
  302.617
  302.614
  302.608
  302.601
  302.595
  302.59
  302.583
  302.576
  302.563
  302.539
  302.507
  302.477
  302.459
  302.452
  302.44
  302.554
  304.498
  304.201
  303.993
  303.784
  303.592
  303.444
  303.34
  303.247
  303.101
  302.928
  302.772
  302.659
  302.595
  302.573
  302.578
  302.598
  302.619
  302.635
  302.641
  302.643
  302.643
  302.643
  302.642
  302.641
  302.636
  302.627
  302.617
  302.609
  302.603
  302.599
  302.596
  302.595
  302.597
  302.601
  302.608
  302.622
  302.643
  302.667
  302.687
  302.752
  298.027
  300.003
  301.276
  301.896
  302.169
  302.254
  302.3
  302.335
  302.373
  302.418
  302.473
  302.53
  302.581
  302.627
  302.654
  302.666
  302.671
  302.672
  302.672
  302.672
  302.671
  302.667
  302.657
  302.642
  302.629
  302.62
  302.614
  302.611
  302.611
  302.613
  302.616
  302.622
  302.63
  302.643
  302.658
  302.673
  302.691
  302.743
  299.313
  300.277
  301.217
  301.722
  301.956
  302.064
  302.141
  302.238
  302.34
  302.436
  302.528
  302.603
  302.65
  302.679
  302.693
  302.7
  302.703
  302.704
  302.704
  302.705
  302.704
  302.701
  302.684
  302.663
  302.645
  302.633
  302.626
  302.621
  302.62
  302.62
  302.622
  302.626
  302.633
  302.642
  302.652
  302.661
  302.694
  302.724
  300.713
  300.665
  300.667
  301.329
  301.674
  301.911
  302.071
  302.209
  302.358
  302.484
  302.574
  302.639
  302.683
  302.711
  302.73
  302.742
  302.75
  302.754
  302.756
  302.757
  302.756
  302.757
  302.761
  302.752
  302.72
  302.692
  302.673
  302.659
  302.65
  302.643
  302.637
  302.633
  302.631
  302.631
  302.634
  302.639
  302.645
  302.652
  302.723
  302.817
)
;

boundaryField
{
  floor
  {
    type wallHeatTransfer;
    Tinf uniform 305.2;
    alphaWall uniform 0.24;
    value nonuniform List<scalar> 29
(
  302.809
  302.907
  302.874
  302.878
  302.885
  302.889
  302.893
  302.901
  302.908
  302.916
  302.924
  302.931
  302.938
  302.943
  302.947
  302.95
  302.953
  302.935
  302.826
  302.878
  302.878
  302.693
  302.626
  302.604
  302.809
  302.907
  302.845
  302.858
  302.825
)
;
  }
  ceiling
  {
    type wallHeatTransfer;
    Tinf uniform 303.2;
    alphaWall uniform 0.24;
    value nonuniform List<scalar> 43
(
  300.877
  300.825
  300.822
  301.438
  301.763
  301.988
  302.142
  302.277
  302.424
  302.545
  302.631
  302.694
  302.736
  302.764
  302.784
  302.798
  302.807
  302.813
  302.816
  302.817
  302.817
  302.817
  302.822
  302.817
  302.789
  302.763
  302.745
  302.731
  302.721
  302.712
  302.704
  302.697
  302.691
  302.687
  302.686
  302.688
  302.694
  302.704
  302.772
  302.854
  304.44
  304.162
  299.545
)
;
  }
  sWall
  {
    type wallHeatTransfer;
    Tinf uniform 315.2;
    alphaWall uniform 0.36;
    value uniform 302.104;
  }
  nWall
  {
    type wallHeatTransfer;
    Tinf uniform 307.2;
    alphaWall uniform 0.36;
    value nonuniform List<scalar> 6
(
  303.141
  303.058
  302.975
  303.316
  303.305
  303.415
)
;
  }
  sideWalls
  {
    type empty;
  }
  glass1
  {
    type wallHeatTransfer;
    Tinf uniform 315.2;
    alphaWall uniform 4.3;
    value nonuniform List<scalar> 9
(
  311.399
  310.644
  310.169
  309.812
  309.523
  309.272
  309.09
  309.172
  309.42
)
;
  }
  glass2
  {
    type wallHeatTransfer;
    Tinf uniform 307.2;
    alphaWall uniform 4.3;
    value nonuniform List<scalar> 2
(
  305.309
  305.457
)
;
  }
  sun
  {
    type wallHeatTransfer;
    Tinf uniform 305.2;
    alphaWall uniform 0.24;
    value nonuniform List<scalar> 14
(
  303.125
  302.859
  302.854
  302.85
  302.845
  302.841
  302.837
  302.832
  302.827
  302.821
  302.814
  302.809
  302.805
  302.805
)
;
  }
  heatsource1
  {
    type fixedGradient;
    gradient uniform 0;
  }
  heatsource2
  {
    type fixedGradient;
    gradient uniform 0;
  }
  Table_master
  {
    type zeroGradient;
  }
  Table_slave
  {
    type zeroGradient;
  }
  inlet
  {
    type fixedValue;
    value uniform 290.15;
  }
  outlet
  {
    type zeroGradient;
  }
} 	// ************************************************************************* //

