/*--------------------------------*- C++ -*----------------------------------*=========                 |
  \      /  F ield         | OpenFOAM: The Open Source CFD Toolbox
   \    /   O peration     | Website:  https://openfoam.org
    \  /    A nd           | Version:  6
     \/     M anipulation  |
\*---------------------------------------------------------------------------*/
FoamFile
{
    version     2.0;
    format      ascii;
    class       volScalarField;
    location    "600";
    object      PPD;
}
// * * * * * * * * * * * * * * * * * * * * * * * * * * * * * * * * * * * * * //

dimensions      [0 0 0 0 0 0 0];

internalField   nonuniform List<scalar> 
459
(
54.68171791832931
43.36579120805331
42.81928561567118
41.575516292303064
40.58065157957747
39.83864942838576
39.30136735207284
38.93364108355062
38.77091583828074
38.84658684850921
39.1916130911522
39.91505503358004
41.16620754932674
42.52483119248139
41.96760889701284
46.200025985710404
48.85022265946753
47.971845185440685
46.663254101637825
45.98017882809177
45.663646799315806
45.523943081240525
45.51524641890064
45.549623911488126
45.62537202887311
45.67503955562151
45.72854957699021
45.8240835726161
45.93787931019321
46.158781898992174
46.59674884914941
47.49779838218992
47.589200923667995
47.897512029500234
53.39918977379974
43.3712457130299
44.092495683337965
42.76045021232751
41.89051400195228
41.25754068493653
40.80370290946481
40.51654032618867
40.37478456971091
40.43450458761461
40.6251159613171
40.91380676615958
41.31755925834234
41.453216153384325
41.18097075049976
42.68783403793223
45.200006364597506
44.62845445888697
48.437871292051035
48.25764042634943
48.10324425220233
47.467710802052565
46.92916700513199
46.535956146975835
46.33865916627872
46.19830823778688
46.04198610904961
45.87250842482034
45.70446941518059
45.542518921428446
45.414644939829934
45.365384908035644
45.607051035391734
46.46192781492671
46.51305118752997
45.4049308403647
57.04733604836889
42.560115028326074
45.55974147149035
44.44975913146699
44.0352547577295
43.73511202476385
43.536576447514705
43.46648902878943
43.42843639295167
43.50880284058037
43.50492930032405
43.39152762649592
43.01711092411736
42.33937758186867
41.718864057508284
42.11916980875772
42.23980939696293
44.993749054592094
48.51514593689776
48.386365729238705
48.25764042634943
48.10324425220233
47.94893099433416
47.69193217164035
47.409517718807244
47.15304613265682
46.89684043584009
46.666490492137044
46.436370495062484
46.20648729532426
45.87504554495154
45.249145315094246
45.01717690155787
45.79035519436495
44.80889975353397
41.455143799356755
62.16064015811402
42.249612111033095
46.6424384952219
46.037953353264385
46.31802245210487
46.597842486319145
46.876034190131406
47.14850915258538
47.357577567209056
47.463595751262524
47.33525173788319
46.723473556671806
45.561235395989996
43.96227759869295
42.409797358959835
41.420493547850995
41.7992571978427
47.68862476728614
46.53413718328401
48.72130542189565
48.669752940751934
48.566673119850954
48.437871292051035
48.30912388089985
48.18043210580331
48.07751956121123
47.11707028030237
46.14901579500818
45.42791494009923
44.959180414957956
44.835317178662045
45.167401563479885
46.24032361593735
46.29358404338064
45.73562848179427
43.08198350599318
38.62777117317199
67.53292551436758
42.963716356503646
47.43432704799029
47.42982974858819
48.45085556073531
49.451772763484286
50.422383153296835
51.32372099848328
51.945772609522
52.24124073145352
51.88350769915864
50.631557124872934
48.6312352943629
46.15784437575765
43.67551897055157
41.6481062052074
41.10295125166694
43.61872586584377
46.08179002165942
48.82912949236609
49.03079134748263
48.95339286483845
48.85022265946753
48.74708477080442
48.669752940751934
48.59243990789368
48.489385561558635
48.17625600679742
47.381614067707645
46.753613785978565
46.36733308809457
46.26668394514256
46.382776079611546
45.905466185462444
44.8406506647987
41.51726468893663
41.163223964566654
48.15470053420791
46.23510981058147
37.041398918308126
72.30155619818042
44.896389076697396
49.13582860041588
48.67219974352333
50.038084863794964
51.78564134825095
53.72906150431977
55.75066791995755
57.39221905236559
57.99499676012338
56.56040854645768
54.1580856745021
51.29456062652747
48.19664758779459
45.075578086515506
42.29285270820973
40.74838879635462
42.53601367187885
45.83363096894773
48.62490480837375
49.340558179547294
49.31473396468566
49.23727241122236
49.15982770263725
49.108207387241286
49.03079134748263
48.95339286483845
48.85022265946753
48.669752940751934
48.437871292051035
48.1289712464365
47.79470274582136
47.0579712262886
45.79305622034665
44.25586355895597
40.87456394215111
41.27147647859887
41.941633606761826
41.51474639079378
41.60199385957595
76.01395797693367
49.900195590146
56.525054212238395
51.64023397418045
51.05203377531963
52.90172080625841
55.69638776504203
57.12447230074501
58.18560973818278
59.42413012819129
58.051931676286586
55.30280565085134
52.37706764911859
49.256862938623804
46.07862643218468
42.88727558742907
40.44611409546376
42.09701071557942
45.94712253407912
48.90745721041541
49.67643606379095
49.67643606379095
49.62474326678689
49.59889944705122
49.54721701497978
49.49554159255628
49.41804177627575
49.2889115917325
49.08240010632452
48.798649636189
48.41211741742407
47.974644023667935
47.537850239386934
46.82249599825942
44.79570751992555
41.65882680056351
40.89946249710317
40.28922517997897
38.6274306934675
43.903961864019884
81.81922269456868
69.28306248436968
67.76091293694034
59.88770361927113
56.24758701332739
55.29461680737391
55.61384157468852
56.176229024882836
56.3240152765872
55.940556113184726
55.08920401704616
53.48328056432042
51.30565803206857
48.78884464025203
46.09556483215706
43.23567372550188
40.45609768512173
42.17300754817409
46.555609684681386
49.71358110451174
49.98673305971182
50.038471847189875
50.038471847189875
50.01260166726393
49.98673305971182
49.96086603456844
49.88327455391004
49.779842008367396
49.59889944705122
49.340558179547294
48.97919039181033
48.46362734335175
48.00035940470513
47.589200923667995
47.22996012345925
46.69860091332162
45.65070201413269
45.24733687504752
41.62152051597111
36.68418866631349
88.68477691027243
83.47464292492123
76.16343789569433
68.61049051136887
62.69220844080068
58.808378420582216
56.50077556990988
55.23176818038635
54.57046089027733
53.5891133069012
52.03689263583648
50.19282141231951
48.38724545384734
46.68039219315156
45.07018774175564
43.13528920051116
40.5622646787536
43.01493084277543
48.06683908351467
50.064343589438884
50.3231447274783
50.40081383327576
50.42670639124905
50.452600360406265
49.96557919038138
49.424259877644964
48.87464263352911
48.28240479142875
47.67343492450507
47.04556470123406
46.39508854762039
45.73075273953751
45.19850271825541
44.54930356449933
43.7605875096506
43.09576637594995
42.62502394387303
42.33781338026944
41.723336403413235
39.92732598906614
81.2966720308515
5.019548067321665
19.59843208289972
32.94003802751554
39.44484239648972
42.25836941393468
43.19919073033603
43.535301236627674
43.495727493936315
43.32394353842477
43.17902356581396
43.21668063161592
43.427463798849814
43.341002780635094
41.29983231857659
45.48080327677824
49.70228502109614
50.452600360406265
50.737524264953585
50.84117235559798
50.27509126640383
49.56115745993639
48.8956162404189
48.23273700709999
47.57239066732377
46.93610637614598
46.38503267556924
45.95973638428132
45.6671749472806
45.560035318931966
45.51891031104403
45.5647862677783
45.59331568192217
45.76307058103398
46.4362136812581
48.52013230540107
52.90904237869472
42.6430046776185
56.69395168395022
5.056213933033504
15.646776444028262
26.06219167591476
32.08352338372869
34.938715302722784
36.10516131883815
36.612117057300026
37.2899748454937
38.039149594104835
38.96611523605099
40.08468253306278
41.597307285096
43.37412886074074
41.983073570845875
49.171369740003584
50.452600360406265
50.23232299378399
50.07510384069645
49.29802938965809
48.60838937224717
48.050066793823845
47.61733751887509
47.27663850607785
46.96263577162795
46.72340967766785
46.563325066979964
46.476779679402604
46.53393246191178
46.76838712767634
47.24500546030443
48.024738584842474
48.79909886535513
49.424780335570624
50.09435914106075
52.322900745373595
48.85616877092956
45.21012751210719
16.755818396418334
19.337690182897916
16.560364911273
8.59087663853036
21.231204508008034
32.63009990038675
37.124351211327046
34.795720141898784
33.66482619011707
33.10911086784209
32.97767873981232
33.161021347866665
33.49434187012247
33.84900331769316
34.06610997031527
34.04520877711445
34.7651692625236
41.87952205637769
43.09765658427658
43.15915845679022
43.165095510855565
43.171728175514346
43.15714908398679
43.12542932369262
43.148421804806375
43.19003149831833
43.29570112724059
43.48764702319559
43.797084657534995
44.27044277594427
44.95571857132865
45.92101586485179
47.42268867349132
49.965567529052855
53.41117323840384
53.87897890730317
51.8235726706353
48.41147814995474
45.68789731959546
46.49407330399567
)
;

boundaryField
{
    ".*"
    {
        type            zeroGradient;
    }
}


// ************************************************************************* //
