/*--------------------------------*- C++ -*----------------------------------*\
  =========                 |
  \\      /  F ield         | OpenFOAM: The Open Source CFD Toolbox
   \\    /   O peration     | Website:  https://openfoam.org
    \\  /    A nd           | Version:  6
     \\/     M anipulation  |
\*---------------------------------------------------------------------------*/
FoamFile
{
    version     2.0;
    format      ascii;
    class       volScalarField;
    location    "300";
    object      nut;
}
// * * * * * * * * * * * * * * * * * * * * * * * * * * * * * * * * * * * * * //

dimensions      [0 2 -1 0 0 0 0];

internalField   nonuniform List<scalar> 
459
(
0.0011042
0.00119527
0.00119422
0.00124826
0.00129991
0.00134836
0.00139553
0.00144124
0.00147163
0.00148045
0.00146176
0.00141202
0.00133322
0.0012385
0.00114869
0.000519991
0.000608623
0.000648351
0.000633014
0.000610479
0.000582932
0.000546865
0.000513339
0.000483384
0.000456797
0.000433459
0.000413186
0.000395792
0.000381374
0.000369509
0.000358766
0.000352393
0.000376183
0.000359357
0.00157281
0.003779
0.00355271
0.00415597
0.00469451
0.00523925
0.00572793
0.00610211
0.00643885
0.00670534
0.00685505
0.00683217
0.00655467
0.00584198
0.00411396
0.00113226
0.000771858
0.000599253
0.00113022
0.00150335
0.00188631
0.00214027
0.00215909
0.00177676
0.00153032
0.00135166
0.0012191
0.00111881
0.00104201
0.000982448
0.000932886
0.000888583
0.000853662
0.000833973
0.00113565
0.000529684
0.00195818
0.00521143
0.00426979
0.00560525
0.00616021
0.00655308
0.00686878
0.0071285
0.00741219
0.00770468
0.00796195
0.0081206
0.00810332
0.00782596
0.00712468
0.00542429
0.00115049
0.00103917
0.00159593
0.00206318
0.00260406
0.00300656
0.00280793
0.000783945
0.000688526
0.000619473
0.000567681
0.00052746
0.000495184
0.000468434
0.000445574
0.000425999
0.000475897
0.000603751
0.00127785
0.000644082
0.00232215
0.00679238
0.00428326
0.00590525
0.00646038
0.00661955
0.00672998
0.00686961
0.00710699
0.00742477
0.00777659
0.00808795
0.00826576
0.00823914
0.00796992
0.00723685
0.00531899
0.0013024
0.00198597
0.00275877
0.00348984
0.00406583
0.0043396
0.00373539
0.000894304
0.00082631
0.000791317
0.000770362
0.000751412
0.000725435
0.00068958
0.000651812
0.000607115
0.000634207
0.000818363
0.00168246
0.000693862
0.00268099
0.0087348
0.00481934
0.00564058
0.00639397
0.00643677
0.00639582
0.00645678
0.00668095
0.00702112
0.007439
0.00784891
0.00812632
0.00817801
0.00802171
0.00767077
0.00695213
0.00556711
0.00521198
0.00529356
0.00547539
0.00562165
0.00561572
0.00526015
0.00425921
0.00394885
0.00380213
0.00368066
0.00353209
0.00333058
0.00301893
0.00255043
0.00203462
0.00160869
0.00126677
0.00146731
0.0013158
0.000787361
0.000911915
0.00104513
0.00304771
0.0107514
0.00667719
0.00557095
0.00616079
0.00638588
0.00625286
0.0062699
0.00646876
0.00680373
0.00724976
0.0077068
0.00803355
0.00812783
0.00799369
0.0077385
0.00745596
0.00708666
0.00686819
0.00670613
0.00653942
0.00635024
0.00610485
0.00576302
0.00532159
0.00501275
0.00476749
0.00453121
0.00428913
0.00404369
0.00380018
0.00347756
0.00302952
0.00252213
0.00201424
0.00158564
0.00155983
0.00139545
0.00180538
0.0011393
0.00337652
0.0121501
0.00942292
0.00701784
0.00651019
0.00660886
0.00647335
0.006384
0.00647196
0.00677113
0.00723475
0.00773621
0.0081069
0.00821717
0.00806753
0.00781708
0.00767031
0.00757882
0.00737609
0.0070151
0.00658515
0.00615848
0.00576166
0.00540153
0.00508212
0.00482156
0.00459128
0.0043619
0.00414702
0.00396278
0.00382331
0.00371268
0.0034825
0.00309608
0.00267637
0.00235342
0.00226958
0.00235041
0.00237841
0.00145046
0.00343293
0.0108954
0.00954646
0.00860883
0.00789059
0.00736911
0.00679815
0.00648364
0.00652783
0.00688137
0.00742116
0.00797554
0.00835519
0.00842814
0.00822311
0.00794694
0.00779709
0.00752604
0.00703503
0.00642796
0.0058344
0.00533642
0.00495769
0.00468474
0.00448786
0.00433452
0.00419363
0.00405075
0.00391978
0.0038382
0.00384373
0.0039493
0.00409328
0.00407417
0.00408576
0.00440813
0.00515035
0.00573256
0.0061196
0.00181004
0.00333092
0.00393913
0.00445541
0.00468657
0.0048315
0.00494965
0.00521286
0.00572092
0.00641661
0.00719506
0.00793838
0.00851388
0.0087896
0.00870361
0.00838929
0.00802456
0.00745531
0.00675045
0.00604008
0.0053845
0.00486513
0.00451457
0.00430704
0.00419695
0.00414114
0.00410033
0.00403721
0.00392479
0.00376703
0.00361026
0.00350984
0.00348014
0.00349532
0.0035167
0.00352113
0.0034599
0.00325084
0.00290358
0.00258835
0.00166297
0.00207992
0.00407687
0.00546571
0.00654545
0.00751548
0.00824253
0.00874404
0.00907253
0.00927209
0.00933824
0.0092614
0.00890833
0.00822654
0.00735506
0.0064883
0.00579613
0.00528423
0.00487613
0.00455142
0.00436596
0.00428754
0.00427697
0.00430622
0.00434916
0.00437242
0.00433629
0.00421316
0.0040217
0.00384141
0.00374691
0.00372091
0.00372131
0.00369455
0.00358334
0.00332648
0.00292758
0.00244017
0.00142667
0.00248605
0.00570204
0.00762511
0.00817318
0.00859963
0.00879963
0.0086692
0.00840907
0.00814377
0.0079021
0.007641
0.00722446
0.00666223
0.00610694
0.00569572
0.00544746
0.00528909
0.00509838
0.00483133
0.0046367
0.00452651
0.00447689
0.00447075
0.00449374
0.00452583
0.00453924
0.00450226
0.0043866
0.00420018
0.00407576
0.00403532
0.00405634
0.00409526
0.00413146
0.0040389
0.0038566
0.0030244
0.00146097
0.00215914
0.00227457
0.0023661
0.00248778
0.00234067
0.00218422
0.00204599
0.00191113
0.00179409
0.00170317
0.00162184
0.00154314
0.00146865
0.00140326
0.00135286
0.00131867
0.0012969
0.00127813
0.00125122
0.00121935
0.00120026
0.00118608
0.00117792
0.00117451
0.00117436
0.0011761
0.00117889
0.00118316
0.00119164
0.00121068
0.00124818
0.00130136
0.00137285
0.00146076
0.00156883
0.00165171
0.00167863
0.00162438
0.0015096
0.00138284
)
;

boundaryField
{
    floor
    {
        type            nutkWallFunction;
        Cmu             0.09;
        kappa           0.41;
        E               9.8;
        value           nonuniform List<scalar> 
29
(
0.000138043
6.22996e-05
7.34587e-05
7.83996e-05
7.65032e-05
7.37019e-05
7.02591e-05
6.57209e-05
6.14686e-05
5.76404e-05
5.42178e-05
5.1193e-05
4.85487e-05
4.62669e-05
4.43657e-05
4.27937e-05
4.13642e-05
4.05112e-05
4.36642e-05
4.14305e-05
4.14305e-05
6.35171e-05
7.7846e-05
8.39837e-05
0.000138043
6.22996e-05
7.22558e-05
0.000125319
0.00015574
)
;
    }
    ceiling
    {
        type            nutkWallFunction;
        Cmu             0.09;
        kappa           0.41;
        E               9.8;
        value           nonuniform List<scalar> 
43
(
0.000250407
0.000262822
0.000272622
0.000285705
0.00027006
0.000253273
0.000238336
0.000223658
0.000210822
0.000200778
0.000191737
0.000182937
0.000174563
0.000167175
0.000161456
0.000157562
0.000155077
0.000152929
0.000149848
0.000146195
0.000144
0.000142368
0.000141425
0.000141031
0.000141012
0.000141211
0.000141532
0.000142023
0.000143
0.000145193
0.000149499
0.000155582
0.000163716
0.000173654
0.000185784
0.000195025
0.000198016
0.000191985
0.000179153
0.000164855
0.00037434
0.000436604
0.00028526
)
;
    }
    sWall
    {
        type            nutkWallFunction;
        Cmu             0.09;
        kappa           0.41;
        E               9.8;
        value           uniform 0.000250478;
    }
    nWall
    {
        type            nutkWallFunction;
        Cmu             0.09;
        kappa           0.41;
        E               9.8;
        value           nonuniform List<scalar> 6(0.000125998 0.000136959 0.000172499 0.000169833 0.000173703 0.00016487);
    }
    sideWalls
    {
        type            empty;
    }
    glass1
    {
        type            nutkWallFunction;
        Cmu             0.09;
        kappa           0.41;
        E               9.8;
        value           nonuniform List<scalar> 9(0.000133029 0.000186535 0.000229182 0.000268626 0.000306872 0.000345409 0.000379554 0.00038539 0.000374875);
    }
    glass2
    {
        type            nutkWallFunction;
        Cmu             0.09;
        kappa           0.41;
        E               9.8;
        value           nonuniform List<scalar> 2(0.000212687 0.000196413);
    }
    sun
    {
        type            nutkWallFunction;
        Cmu             0.09;
        kappa           0.41;
        E               9.8;
        value           nonuniform List<scalar> 
14
(
0.0001329
0.000143436
0.000143316
0.000149529
0.000155438
0.000160958
0.000166311
0.000171478
0.000174904
0.000175894
0.000173787
0.000168169
0.000159224
0.000148395
)
;
    }
    heatsource1
    {
        type            nutkWallFunction;
        Cmu             0.09;
        kappa           0.41;
        E               9.8;
        value           nonuniform List<scalar> 3(9.53594e-05 0.000110287 0.000125985);
    }
    heatsource2
    {
        type            nutkWallFunction;
        Cmu             0.09;
        kappa           0.41;
        E               9.8;
        value           nonuniform List<scalar> 4(0.000136129 9.34878e-05 9.34878e-05 0.000138254);
    }
    Table_master
    {
        type            nutkWallFunction;
        Cmu             0.09;
        kappa           0.41;
        E               9.8;
        value           nonuniform List<scalar> 9(9.49865e-05 8.33574e-05 7.48221e-05 6.83452e-05 6.32658e-05 5.91554e-05 5.57236e-05 5.27716e-05 5.02288e-05);
    }
    Table_slave
    {
        type            nutkWallFunction;
        Cmu             0.09;
        kappa           0.41;
        E               9.8;
        value           nonuniform List<scalar> 9(0.000108231 0.00010009 9.58666e-05 9.33247e-05 9.1019e-05 8.78504e-05 8.34601e-05 7.88056e-05 7.32552e-05);
    }
    inlet
    {
        type            calculated;
        value           uniform 0.000100623;
    }
    outlet
    {
        type            calculated;
        value           nonuniform List<scalar> 2(0.00215914 0.00227457);
    }
}


// ************************************************************************* //
