// -*- C++ -*-
// File generated by PyFoam - sorry for the ugliness

FoamFile
{
 version 2.0;
 format ascii;
 class volScalarField;
 location "300";
 object T;
}

dimensions [ 0 0 0 1 0 0 0 ];

internalField nonuniform List<scalar> 459
(
  301.171
  300.851
  300.849
  300.857
  300.863
  300.868
  300.872
  300.873
  300.87
  300.861
  300.847
  300.829
  300.807
  300.784
  300.766
  300.623
  300.645
  300.679
  300.677
  300.666
  300.649
  300.627
  300.603
  300.577
  300.551
  300.524
  300.498
  300.473
  300.45
  300.429
  300.412
  300.398
  300.39
  300.418
  301.397
  300.905
  300.89
  300.909
  300.928
  300.944
  300.956
  300.963
  300.961
  300.95
  300.932
  300.909
  300.882
  300.85
  300.8
  300.716
  300.566
  300.635
  300.695
  300.729
  300.739
  300.734
  300.717
  300.685
  300.65
  300.615
  300.581
  300.547
  300.514
  300.482
  300.451
  300.421
  300.394
  300.369
  300.355
  300.397
  301.626
  300.966
  300.928
  300.956
  300.987
  301.014
  301.035
  301.048
  301.046
  301.029
  301.002
  300.972
  300.945
  300.919
  300.891
  300.855
  300.791
  300.883
  300.864
  300.852
  300.842
  300.831
  300.815
  300.774
  300.729
  300.687
  300.648
  300.609
  300.573
  300.537
  300.502
  300.467
  300.444
  300.412
  300.379
  300.399
  301.849
  301.039
  300.963
  300.993
  301.036
  301.078
  301.113
  301.134
  301.13
  301.101
  301.06
  301.019
  300.988
  300.967
  300.948
  300.931
  300.918
  300.927
  300.927
  300.929
  300.927
  300.922
  300.916
  300.91
  300.916
  300.922
  300.927
  300.93
  300.93
  300.926
  300.917
  300.905
  300.882
  300.747
  300.588
  300.412
  300.413
  302.063
  301.13
  301.001
  301.02
  301.071
  301.128
  301.184
  301.218
  301.209
  301.163
  301.103
  301.05
  301.014
  300.995
  300.986
  300.98
  300.975
  300.978
  300.982
  300.986
  300.988
  300.987
  300.985
  300.985
  300.992
  300.998
  301.001
  301.002
  300.999
  300.991
  300.976
  300.955
  300.921
  300.839
  300.701
  300.53
  300.461
  300.666
  300.724
  300.737
  302.253
  301.247
  301.075
  301.059
  301.102
  301.165
  301.248
  301.295
  301.272
  301.206
  301.13
  301.066
  301.027
  301.012
  301.011
  301.015
  301.019
  301.024
  301.031
  301.037
  301.041
  301.043
  301.044
  301.045
  301.048
  301.05
  301.049
  301.046
  301.039
  301.028
  301.013
  300.988
  300.953
  300.893
  300.792
  300.657
  300.566
  300.6
  300.625
  300.672
  302.425
  301.44
  301.262
  301.207
  301.215
  301.262
  301.341
  301.36
  301.311
  301.223
  301.131
  301.062
  301.026
  301.019
  301.031
  301.047
  301.061
  301.071
  301.08
  301.088
  301.092
  301.094
  301.094
  301.093
  301.091
  301.087
  301.081
  301.072
  301.061
  301.049
  301.033
  301.009
  300.976
  300.928
  300.859
  300.769
  300.701
  300.686
  300.684
  300.708
  302.684
  301.944
  301.748
  301.615
  301.54
  301.527
  301.508
  301.432
  301.312
  301.185
  301.084
  301.024
  301.009
  301.024
  301.053
  301.085
  301.108
  301.122
  301.131
  301.137
  301.14
  301.14
  301.136
  301.129
  301.121
  301.11
  301.098
  301.085
  301.072
  301.06
  301.046
  301.029
  301.001
  300.96
  300.916
  300.868
  300.846
  300.855
  300.852
  301.026
  303.057
  302.711
  302.406
  302.141
  301.932
  301.761
  301.573
  301.344
  301.145
  301.012
  300.95
  300.949
  300.988
  301.042
  301.096
  301.139
  301.163
  301.175
  301.183
  301.186
  301.185
  301.179
  301.169
  301.157
  301.142
  301.127
  301.112
  301.097
  301.085
  301.076
  301.069
  301.067
  301.069
  301.074
  301.089
  301.117
  301.158
  301.198
  301.228
  301.315
  294.458
  297.313
  298.811
  299.39
  299.707
  300.014
  300.297
  300.54
  300.74
  300.903
  301.036
  301.124
  301.175
  301.205
  301.222
  301.231
  301.234
  301.231
  301.225
  301.214
  301.199
  301.183
  301.166
  301.149
  301.134
  301.121
  301.111
  301.106
  301.104
  301.106
  301.11
  301.12
  301.137
  301.163
  301.194
  301.224
  301.251
  301.286
  295.43
  297.588
  298.919
  299.578
  300.009
  300.354
  300.616
  300.818
  300.971
  301.081
  301.16
  301.213
  301.246
  301.266
  301.276
  301.28
  301.279
  301.273
  301.263
  301.248
  301.231
  301.212
  301.194
  301.177
  301.162
  301.149
  301.139
  301.132
  301.128
  301.127
  301.129
  301.136
  301.148
  301.167
  301.191
  301.213
  301.219
  301.263
  297.597
  297.536
  297.532
  299.265
  300.059
  300.441
  300.704
  300.898
  301.034
  301.128
  301.199
  301.252
  301.292
  301.32
  301.339
  301.35
  301.356
  301.357
  301.354
  301.344
  301.327
  301.307
  301.285
  301.264
  301.245
  301.228
  301.213
  301.2
  301.19
  301.18
  301.171
  301.164
  301.159
  301.157
  301.16
  301.172
  301.185
  301.195
  301.203
  301.248
)
;

boundaryField
{
  floor
  {
    type wallHeatTransfer;
    Tinf uniform 305.2;
    alphaWall uniform 0.24;
    value nonuniform List<scalar> 29
(
  301.21
  301.435
  301.371
  301.368
  301.378
  301.386
  301.396
  301.411
  301.425
  301.438
  301.449
  301.459
  301.467
  301.474
  301.48
  301.484
  301.49
  301.491
  301.442
  301.494
  301.494
  301.238
  301.134
  301.108
  301.21
  301.435
  301.37
  301.349
  301.316
)
;
  }
  ceiling
  {
    type wallHeatTransfer;
    Tinf uniform 303.2;
    alphaWall uniform 0.24;
    value nonuniform List<scalar> 43
(
  297.935
  297.863
  297.849
  299.478
  300.237
  300.607
  300.862
  301.053
  301.187
  301.281
  301.352
  301.408
  301.45
  301.482
  301.503
  301.517
  301.524
  301.527
  301.527
  301.522
  301.509
  301.492
  301.473
  301.455
  301.437
  301.422
  301.408
  301.396
  301.386
  301.374
  301.362
  301.349
  301.337
  301.327
  301.321
  301.325
  301.335
  301.348
  301.365
  301.418
  303.063
  302.729
  295.845
)
;
  }
  sWall
  {
    type wallHeatTransfer;
    Tinf uniform 315.2;
    alphaWall uniform 0.36;
    value uniform 299.148;
  }
  nWall
  {
    type wallHeatTransfer;
    Tinf uniform 307.2;
    alphaWall uniform 0.36;
    value nonuniform List<scalar> 6
(
  301.728
  301.613
  301.49
  302.009
  301.975
  301.993
)
;
  }
  sideWalls
  {
    type empty;
  }
  glass1
  {
    type wallHeatTransfer;
    Tinf uniform 315.2;
    alphaWall uniform 4.3;
    value nonuniform List<scalar> 9
(
  310.699
  309.814
  309.278
  308.884
  308.573
  308.305
  308.111
  308.211
  308.501
)
;
  }
  glass2
  {
    type wallHeatTransfer;
    Tinf uniform 307.2;
    alphaWall uniform 4.3;
    value nonuniform List<scalar> 2
(
  304.59
  304.817
)
;
  }
  sun
  {
    type wallHeatTransfer;
    Tinf uniform 305.2;
    alphaWall uniform 0.24;
    value nonuniform List<scalar> 14
(
  301.587
  301.273
  301.271
  301.265
  301.258
  301.252
  301.244
  301.237
  301.228
  301.218
  301.209
  301.202
  301.199
  301.202
)
;
  }
  heatsource1
  {
    type fixedGradient;
    gradient uniform 0;
  }
  heatsource2
  {
    type fixedGradient;
    gradient uniform 0;
  }
  Table_master
  {
    type zeroGradient;
  }
  Table_slave
  {
    type zeroGradient;
  }
  inlet
  {
    type fixedValue;
    value uniform 296.15;
  }
  outlet
  {
    type zeroGradient;
  }
} 	// ************************************************************************* //

