/*--------------------------------*- C++ -*----------------------------------*=========                 |
  \      /  F ield         | OpenFOAM: The Open Source CFD Toolbox
   \    /   O peration     | Website:  https://openfoam.org
    \  /    A nd           | Version:  6
     \/     M anipulation  |
\*---------------------------------------------------------------------------*/
FoamFile
{
    version     2.0;
    format      ascii;
    class       volScalarField;
    location    "1600";
    object      PPD;
}
// * * * * * * * * * * * * * * * * * * * * * * * * * * * * * * * * * * * * * //

dimensions      [0 0 0 0 0 0 0];

internalField   nonuniform List<scalar> 
459
(
59.70101804467773
48.014470827799315
46.61806022797825
45.3960140663436
44.573288581083666
44.06871940320794
43.912990620932156
44.09864669444946
44.58776968875718
45.46968928639185
46.772124811346195
48.64000592689125
51.1377530087784
53.306365848776316
53.51455363785401
56.94721671153991
56.27198365043177
56.012097387155606
56.09007258961359
56.24599911709296
56.37591218398258
56.25856851240822
56.02800327032237
55.998798171185335
56.04763613516613
56.10148628975026
56.20455755697555
56.337543137857175
56.494842862804255
56.78172017452264
57.29327788520067
57.751198875944986
57.93254631408076
58.553674486072396
57.71773251960112
49.14698848995717
48.71378628627182
47.59448566511147
46.90996799859726
46.534547343601396
46.397226952740844
46.51449010158152
46.735827991129156
47.156197338600045
47.94170515663168
49.177897592259825
50.9627304254357
52.86403071722467
52.890047350963926
52.890047350963926
52.811998804239
54.974503543365564
55.778127521831266
55.570103463416686
55.62254029681152
55.279867564935735
55.04689750810104
54.97000339080195
55.0013347378744
55.06246863635547
55.080172505296126
55.1146194356089
55.12808498500093
55.17535855868512
55.23396277038857
55.37100103593874
55.76268229914593
56.73953246139263
57.02507829647395
56.5777857912761
60.009217517517946
49.308562352567584
50.65282328251173
50.111129539745306
49.97284002202367
49.94826146787956
50.01556563285716
50.07652220905876
49.83278427587526
49.46981011700727
49.27701458959348
49.53106871029825
50.45847022174555
52.04746591891643
52.73395447827835
52.86403071722467
52.94208192048577
50.06347403463046
52.26606960843935
52.97210537843336
53.46619099182533
53.986911871272135
54.33789619852611
54.52419370180953
54.94991322289776
55.24503574073419
55.37908152798786
55.436219969633484
55.46315417998932
55.458982722446436
55.38014705818222
55.14165020074516
55.215265748660144
56.16652853678985
55.75002013382205
53.26241759994291
64.08053956588317
49.64251255504328
52.16206364533814
52.703948726424514
53.646245943117485
54.50823575689504
55.14811351133991
54.97170295479105
53.610897197004306
51.66240033435416
49.978576309505726
49.06627391175705
49.150974846341136
50.213489225014534
51.877587078610965
52.91606442221718
52.1741621993625
49.98126194591054
49.861073541975244
51.34278499941281
52.73493527337603
53.88514246277581
54.8369336183964
55.55716277258997
55.77688165667478
55.693351683863035
55.63685799780176
55.66792335568833
55.739363773318416
55.894132759537094
56.23345726427294
56.86537249229342
58.073857690264305
57.73846932955507
56.95953955468503
54.6526828249893
50.870668462433265
68.72170508795332
50.74180537012802
53.634098990268484
55.165320659382026
57.73356367470189
60.6378542539711
62.02273635414085
59.72615167698276
55.91949530872528
52.141357687002376
49.419572603150456
47.88710443502405
47.612685618965
48.436512235888465
49.931944152539636
51.38704491895372
51.82509582189249
51.66487680904374
52.09644556827112
53.41260236834032
55.02776522603569
56.45977492313015
57.640275085639985
58.49337390339001
58.992985097231376
59.1010174952441
59.09802770325345
59.04853377063007
58.9661104633744
58.879801926741564
58.845728543210356
58.9003868576056
59.00319788452983
58.28406724568395
56.870054878390796
53.6810664401218
53.336835115071985
60.30707671512324
59.55586252592279
50.77607110982119
73.15762617103945
53.08110137132708
56.490831461023454
58.06046045866701
61.74201404649436
63.24273456231658
62.904654550220705
58.666101807994586
54.51202132246132
50.62053684606137
47.71104917918169
46.17504867305459
46.07132209911275
47.210781069485186
49.1831885597091
51.33976009175823
53.02546823447049
54.23709456351695
55.54592238276831
57.17934450124984
58.13970168128651
58.91550207667573
59.53482282368283
60.02417805100606
60.40987028904005
60.717989845254976
60.948813836406444
61.102565568244046
61.153792375124674
61.07694768061067
60.89753977936793
60.64099732089786
60.160732559864876
58.803084468404144
56.97295642968461
53.63999701737699
53.51920789945171
54.361204515843916
54.28932020752674
54.94436838135393
77.30584205626502
58.25461748536658
64.5908545553695
63.20733770449635
62.9853215594451
61.724896265467386
58.95107021458016
55.08144677064152
50.8446817731082
47.12424089085775
44.718974676078155
43.95594511192778
44.77049150083612
46.89625004423694
49.87822844362192
53.18335122158096
55.570103463416686
56.84338408529084
58.010242205042104
59.01880860346301
59.8439914698166
60.53830161861428
61.05132681804325
61.46089752619509
61.74201404649436
61.94621564639567
62.09922666443728
62.150203172394
62.09922666443728
61.94621564639567
61.665384391149196
61.2818065682846
60.84625412779887
60.192845273074475
58.04690866579778
54.95120539547405
53.743693625450824
53.164062246081926
51.77197654167028
56.37160791942836
82.835946990522
74.61105512405899
72.49059938812707
67.5282750160862
64.52166889608091
60.28505737176136
54.743157388180144
49.012606315715054
44.278445801436916
41.38310931398055
40.53639664785691
41.71558404506373
44.52724232630391
48.49409784841313
53.25057415158799
55.75212700583213
57.51792553762897
58.94133182292097
60.049908967941136
60.8718983974472
61.537603937075154
62.02273635414085
62.404878069799224
62.65919894524939
62.81161703383069
62.913154968258326
62.96390143862673
62.913154968258326
62.81161703383069
62.63378309748628
62.37942633220976
61.94621564639567
61.537603937075154
61.025702991439275
60.461250971389006
59.89548577001949
58.775301926805604
58.15978475879739
54.894140595107196
50.33582423209224
89.48690591507025
85.24026264064484
78.67086433048327
70.24717119497276
59.72896735928175
48.18968791830307
39.25863486098184
33.98466256412479
32.20859356136121
33.33980501361563
36.79947213515634
42.06556549196131
48.396339931792156
53.15023601889918
56.09007258961359
58.50195364533408
60.049908967941136
61.12818047004652
61.89518509857441
62.481211997832645
62.913154968258326
63.023696850125965
62.95118933586515
62.848411485678284
62.71713390704271
62.50532907050234
62.241433001809106
61.91269340431166
61.47939660603877
60.96383990198377
60.371487739065984
59.72175691961217
59.09168976173751
58.346374029269406
57.471270014121664
56.723159691173045
56.23019678458061
55.948357330989374
55.37420433857786
53.71854092706901
98.99237617634174
67.67947197902458
31.774424080199537
8.152866016381466
5.573296301035015
12.491655525438674
23.94934799865011
35.904784434566466
44.237390667654836
50.94074719228292
55.07588766134617
57.88074081614176
59.211727287872506
60.074208960602014
60.73114178491821
61.192248186602725
61.46658653417996
61.59708860804699
61.6339256638938
61.56964477448643
61.45599624481572
61.31016135995817
61.096647250921066
60.83376824072176
60.547020208085186
60.24365460469433
59.96443620144544
59.67535624982079
59.477464437442244
59.33850387218523
59.250975429025516
59.198058212592436
59.15496245216142
59.26851802805603
59.83880846769236
61.713804490201866
65.48386405047955
57.13139322305313
92.62494059463748
26.009920431122012
5.036444376631238
11.834260539111028
22.04635881762195
30.569353245603935
37.959695496701656
44.109281100474725
49.053122954272034
52.77107056474002
55.34279655182837
57.11323031319098
58.376524186843724
59.235386673547126
59.840714254122396
60.23184981405442
60.4892044711705
60.62242266508011
60.728514082127234
60.74866696319594
60.75187264992125
60.70971447401016
60.64848989193357
60.56978933501547
60.478179652773974
60.35574897553744
60.269783336248324
60.24572576234011
60.26242845416432
60.44864241171551
60.850197001977385
61.46312100961069
62.10727629983018
62.652502456431904
63.26060479344298
65.28468078891783
61.83037421314295
59.212860430977
20.72109655540055
26.216068412987937
21.426254884240095
7.789918770387189
21.38830075779852
30.41481256710307
36.82245780639392
42.08281719212939
46.49346506664811
50.1486163665386
53.12603459380124
55.402937757947775
57.05531752536523
58.19183707816224
58.89284198755743
59.309637204774596
59.50444208611228
59.574506059631496
59.58410635326391
59.560682398624884
59.546022946374315
59.53755792230357
59.546868415037004
59.54459289007739
59.58388190641837
59.612025742897735
59.689595484114434
59.77545811484455
59.9447669032608
60.171095976004395
60.57116496500771
61.185390162364214
62.323145525408606
64.34076914291467
65.82881693773055
66.15168938308055
64.4167969057801
62.19772438107065
59.96893825717043
60.21700613492651
)
;

boundaryField
{
    ".*"
    {
        type            zeroGradient;
    }
}


// ************************************************************************* //
