/*--------------------------------*- C++ -*----------------------------------*=========                 |
  \      /  F ield         | OpenFOAM: The Open Source CFD Toolbox
   \    /   O peration     | Website:  https://openfoam.org
    \  /    A nd           | Version:  6
     \/     M anipulation  |
\*---------------------------------------------------------------------------*/
FoamFile
{
    version     2.0;
    format      ascii;
    class       volScalarField;
    location    "2100";
    object      PPD;
}
// * * * * * * * * * * * * * * * * * * * * * * * * * * * * * * * * * * * * * //

dimensions      [0 0 0 0 0 0 0];

internalField   nonuniform List<scalar> 
459
(
59.26814057814511
47.53116264876689
46.15900018042734
44.93523236976196
44.11349649212144
43.61305395920657
43.4655128251812
43.66334151466896
44.197421021929394
45.075310695735475
46.43475004024842
48.339738251292104
50.882853516161624
52.927183439622326
53.161346011784026
56.62062574488955
55.9190945505038
55.68511030956572
55.78911082808841
55.9190945505038
56.04905820892342
55.95651080322354
55.718196764878606
55.68638950990852
55.73466855451608
55.81358479896129
55.916276679933205
56.048797745625045
56.205530423718315
56.491707003684034
57.0026348856078
57.45101991841244
57.658401711063796
58.27993782192255
57.23680826120838
48.68702641710288
48.22789244751768
47.10504985641037
46.447833821476074
46.04812251126648
45.94652616356777
46.04777164421939
46.31242700804571
46.752238008034325
47.560735400258274
48.82445964368603
50.67108160359264
52.484975890164094
52.53699229492028
52.510983797561074
52.4329618870223
54.646334575835354
55.45106891576772
55.242990481323595
55.329592286645116
55.00912640514819
54.769308616527695
54.68822528657496
54.71801716525754
54.77923551376303
54.79691544979594
54.831064904773115
54.84430594424322
54.89145775463054
54.94999631023418
55.08708302860856
55.479732117977946
56.464791371017206
56.75045772772001
56.327775927740724
59.507337658829115
48.81300496353461
50.169739253428816
49.652181960118085
49.512699480871184
49.46272923008615
49.56463867766528
49.60587268262994
49.37048422581268
49.01663507520582
48.83527979599617
49.13155212757513
50.11064650521621
51.788043318032884
52.380950368995784
52.510983797561074
52.5630013717932
49.755636904302186
51.97644927188098
52.6797713807245
53.17308787113457
53.72130817568611
54.07018964995321
54.252927694922484
54.6609910510919
54.962897233771095
55.09956048776522
55.157383546047896
55.184742508553235
55.18117570338897
55.103009547487254
54.86520286733587
54.94084642121253
55.89846703559787
55.49448593205181
52.96966219809965
63.57397684096386
49.13709225586142
51.68079118088989
52.22540373246006
53.19684938894556
54.03530959444987
54.70632112573369
54.49215213790982
53.09174211420176
51.14119603996989
49.493414799224354
48.62552779579976
48.7660483618022
49.883736672948906
51.592175349489125
52.5630013717932
51.7983683673308
49.573347762710554
49.521810879537085
51.00743716960532
52.426268398725625
53.60788002899591
54.59593934862808
55.33209534789924
55.5908348740882
55.505872043972
55.44706396136129
55.502947123024754
55.57274027733109
55.72436703693241
56.08665891681537
56.71720315681799
57.9284144435087
57.56941703486834
56.74237193653235
54.42045314422971
50.59493372566803
68.25436887082502
50.25560348451529
53.15240515400439
54.723284184719724
57.30974840023045
60.23807712019674
61.59926167058534
59.188972901828166
55.353098602019706
51.592278805635914
48.890992668430215
47.409954874668514
47.216035084046766
48.11939507730866
49.68568738011994
51.15542683396367
51.528125530185335
51.38117016800116
51.84627472712185
53.164161251616186
54.78180401883736
56.220924552545334
57.43914478649382
58.331688036833505
58.797103391228795
58.98789803264499
58.9869077238184
58.96247841851071
58.90303301579167
58.786099425617024
58.745141566585374
58.79235175725665
58.88709592530274
58.13543179693349
56.69460354299383
53.470166291944416
53.09749798405603
60.11203581091157
59.43360800083001
50.585642842342885
72.70958363510847
52.55771586110515
56.01199385041236
57.62979797587426
61.34355144720802
62.84741642733368
62.38765720069399
58.127492447102746
53.928273790067934
50.053505591437386
47.19345652098155
45.73602224183225
45.73705422072177
46.95357384249058
48.97356973283886
51.16250531516697
52.85646290264809
54.05007772144043
55.354793208659935
57.012755147312106
57.94339080209254
58.71957762842958
59.365054432629385
59.88043238718717
60.266323170463046
60.600284469611076
60.83121544951065
60.985040766129906
61.036292502785514
60.985040766129906
60.805567787308895
60.523257186067326
60.1002935930842
58.70542338425426
56.84488309227633
53.45600445295298
53.31442992037812
54.12966920328103
54.08457690082056
54.77706312859903
76.91229313090946
57.76182444146462
64.17204758765081
62.78845058491956
62.58825390727214
61.273660440956064
58.43073326569534
54.532643448560506
50.27913505361528
46.579918299840806
44.25418875024371
43.569422360084324
44.48719557321597
46.690230992724686
49.77752138576971
53.12929022571506
55.39905274480976
56.67256189687954
57.839780719544216
58.84877721104876
59.70015785871506
60.39482373837612
60.933777286902206
61.34355144720802
61.62481528909034
61.85465219750066
61.982224176917335
62.05872713138638
62.03322952466787
61.88017324822621
61.57370485510842
61.215579849694215
60.754263895806496
60.132911972906626
57.9264123589841
54.80102471331762
53.562384112548266
52.99175366511535
51.59165151254759
56.19987740580012
82.49117887928745
74.23354907740273
72.10654415576954
67.09250598319741
64.05985252762332
59.75772422758725
54.187978663482
48.44511302451262
43.76760710597961
40.90308163027883
40.1639302504385
41.446983467485516
44.364285232310266
48.41704021566578
53.29665398509795
55.633105773759134
57.39915983703231
58.82294131061626
59.90617611254168
60.754263895806496
61.420297435041654
61.9312053891422
62.288051623338085
62.567952394305394
62.745844583478195
62.84741642733368
62.872800094281146
62.84741642733368
62.745844583478195
62.567952394305394
62.3135148159159
61.88017324822621
61.4714458410417
60.933777286902206
60.3434314892545
59.75167698106636
58.72795066041923
58.07879263302812
54.779547498026346
50.157288412935905
89.24501111019177
84.93951278875453
78.30656048120079
69.82900515811532
59.162248118584145
47.5767543978763
38.695517797817494
33.49842028087616
31.831277665964905
33.05740175831413
36.613188698540455
42.01567704454821
48.45290744015359
53.05727002333343
56.04905820892342
58.46103167797201
59.983392380359746
61.036292502785514
61.80360018984182
62.38988334384366
62.82202903197001
62.94865581188111
62.90491782697764
62.80524991773453
62.67650734701845
62.46622860268835
62.202258761770125
61.87162963529053
61.43487391240318
60.914610902634834
60.290221682719654
59.626936800672794
59.018072654688396
58.24292326395043
57.36488952351392
56.6134805184585
56.08980573415116
55.808122827751525
55.233966187083695
53.5745813082248
98.97901674464767
67.93887882475182
31.864184748736037
8.145779177832779
5.586433583949244
12.552049872412042
24.07909077369787
35.93912403274784
44.29919675171384
51.003838292882484
55.086909395609844
57.865685674526915
59.10902454122679
59.97855105373808
60.65090168651688
61.099888177070284
61.410784060445906
61.552780061849994
61.59830975019054
61.564331125310346
61.453399972156156
61.283708151747206
61.07174805892172
60.809935728608636
60.52321813024341
60.21846999715612
59.909847889757444
59.642923764159335
59.41278570336843
59.26870019901445
59.176429355951804
59.118896957444804
59.07115071785017
59.18075287162257
59.74876016109644
61.62585475474141
65.4245432155503
57.056917030512835
92.5864078984835
25.937295419659605
5.0394578781964015
11.886520204887802
22.045195186626458
30.55708358541324
37.941073099028024
44.10347864667704
49.00875455690243
52.739192193023726
55.296771516739895
57.07667658331926
58.32141240806033
59.211911450990996
59.79393954761554
60.214016237435395
60.47324407017428
60.60691143284119
60.68486735614485
60.730574335393506
60.73458109533421
60.694531522137716
60.609913303941724
60.534320566699385
60.44551553647983
60.32519024960786
60.24042429043497
60.189911133210444
60.23236781039167
60.390578426466995
60.790570026189606
61.37488910847245
62.014059183489266
62.58009398341583
63.185524103802145
65.20829429341894
61.774630421516335
59.11505310531368
20.65337176432665
26.122818146599528
21.349242586185753
7.814120145348824
21.427621135276013
30.438565058518577
36.82366664144552
42.060060527987105
46.47491195090308
50.10763991922044
53.09066998636312
55.372636744864636
57.02956299541094
58.17135417655443
58.87825044030914
59.30070173161255
59.49956655807338
59.569754384925815
59.57469513369851
59.54296893524204
59.5185096272681
59.501798121052566
59.50533752065269
59.50001584855499
59.538638015961524
59.56789197710076
59.620867518585
59.710149427412944
59.88361067722248
60.114347657467746
60.492156394674396
61.137826661607214
62.25661180178497
64.28871571700506
65.73937401609241
66.06246733895517
64.31886945506812
62.090472946397895
59.86576374912744
60.13012191551771
)
;

boundaryField
{
    ".*"
    {
        type            zeroGradient;
    }
}


// ************************************************************************* //
