/*--------------------------------*- C++ -*----------------------------------*\
  =========                 |
  \\      /  F ield         | OpenFOAM: The Open Source CFD Toolbox
   \\    /   O peration     | Website:  https://openfoam.org
    \\  /    A nd           | Version:  6
     \\/     M anipulation  |
\*---------------------------------------------------------------------------*/
FoamFile
{
    version     2.0;
    format      ascii;
    class       volScalarField;
    location    "140";
    object      alphat;
}
// * * * * * * * * * * * * * * * * * * * * * * * * * * * * * * * * * * * * * //

dimensions      [1 -1 -1 0 0 0 0];

internalField   nonuniform List<scalar> 
459
(
0.00158775
0.00179015
0.00196331
0.00198136
0.00167629
0.00140379
0.00116496
0.0010111
0.000908754
0.000825261
0.000764604
0.000722553
0.000692568
0.000671659
0.000656431
0.000500723
0.000597375
0.000614386
0.000582505
0.000533226
0.000467364
0.000396947
0.000288844
0.000205834
0.00020464
0.000211304
0.000210601
0.000205921
0.000218376
0.000246464
0.000291654
0.000358483
0.000388728
0.000375889
0.00170334
0.00301924
0.00526175
0.00716178
0.00780271
0.00693664
0.0052853
0.00378285
0.00308419
0.00308068
0.00318579
0.00295226
0.00257313
0.00211824
0.00151382
0.000711289
0.00052946
0.000710011
0.00132596
0.00152868
0.00165557
0.00150236
0.00120868
0.000777086
0.000491948
0.000412515
0.000459252
0.000466434
0.000375298
0.000289522
0.000277991
0.000357411
0.000697653
0.00116051
0.00136921
0.000550829
0.00183164
0.00261564
0.00313368
0.00389057
0.00511759
0.00608346
0.00643066
0.00620016
0.00466312
0.00373827
0.0039446
0.00382471
0.00327979
0.00265183
0.00198112
0.00135061
0.000800256
0.000968344
0.00264139
0.00242512
0.00207595
0.00169118
0.00133794
0.000457404
0.000360228
0.0003178
0.000294345
0.000275453
0.000255934
0.000235033
0.000268498
0.000535472
0.00125557
0.0017303
0.00167574
0.000615991
0.00371647
0.00416968
0.00411398
0.00404041
0.00431014
0.00498854
0.00576536
0.00632373
0.00610152
0.00479986
0.00464872
0.00486872
0.00434603
0.00358074
0.00273184
0.00192523
0.00133983
0.00108937
0.00263359
0.00270171
0.00250974
0.00216521
0.00176604
0.00132394
0.000950145
0.000975928
0.00101047
0.00104937
0.0010902
0.00113297
0.00116264
0.00116599
0.00113803
0.00139456
0.00181913
0.0025118
0.000988204
0.00408044
0.00502514
0.0047497
0.00441123
0.00434894
0.00473925
0.00547077
0.00625185
0.00652938
0.00565927
0.00541775
0.00613218
0.00615071
0.00586087
0.00551562
0.0051374
0.00478694
0.00455557
0.00458811
0.00447218
0.00431558
0.00420639
0.00415233
0.00413958
0.00417932
0.00432683
0.00450382
0.0046816
0.0048282
0.00491585
0.00491526
0.00481005
0.00462748
0.00438085
0.00381961
0.0033566
0.00266644
0.00121465
0.00108556
0.00118026
0.00432095
0.00563178
0.005017
0.00442774
0.00430001
0.00462251
0.00535114
0.00623776
0.00671314
0.00612735
0.00601955
0.0068956
0.00720399
0.00717751
0.00710089
0.00697167
0.00676544
0.00649838
0.00620606
0.00589723
0.00563815
0.00547004
0.00538543
0.0053636
0.00539359
0.00547423
0.00558586
0.00569195
0.00574862
0.00572246
0.00560873
0.00543883
0.0052769
0.00519061
0.00509239
0.00482627
0.0043733
0.00363788
0.00288455
0.00135579
0.00456513
0.00562455
0.00435631
0.00413762
0.0042342
0.004603
0.00535883
0.00628203
0.00675854
0.0063203
0.00623256
0.00714958
0.00757346
0.00765954
0.00768957
0.0076559
0.00752384
0.00729342
0.00699742
0.00668306
0.00640134
0.00618431
0.00603323
0.00593614
0.00588911
0.00589899
0.00595436
0.00601122
0.00600839
0.0058954
0.00566592
0.00538427
0.00517705
0.00517885
0.00542838
0.00575596
0.00563078
0.00502397
0.00427907
0.0016299
0.00488146
0.00545007
0.00443554
0.00395023
0.00444066
0.00484242
0.0055027
0.00631225
0.00670929
0.00637393
0.00626537
0.00701121
0.00745696
0.00759576
0.00767593
0.00769195
0.0076148
0.00743883
0.0071884
0.00690705
0.00664265
0.00642998
0.00627916
0.00618299
0.00613618
0.00614772
0.00621686
0.0063032
0.00632856
0.00620511
0.00587774
0.00537274
0.00480273
0.00429361
0.00389906
0.00357018
0.00320691
0.00284672
0.00254773
0.0016362
0.00539493
0.00627376
0.00778953
0.00413884
0.00479635
0.00548676
0.00588106
0.00645671
0.00674192
0.00643446
0.00613279
0.00647099
0.00687056
0.00704814
0.00713955
0.00717006
0.00712882
0.00700783
0.00681719
0.00658529
0.00635073
0.00615154
0.00601668
0.00596479
0.00600181
0.00612009
0.00630591
0.00653259
0.006742
0.00684204
0.0067289
0.00635577
0.00578853
0.00512681
0.00445374
0.00385046
0.00338557
0.00308998
0.00292841
0.00183967
0.0123392
0.00625709
0.0047234
0.00637762
0.0065423
0.00683599
0.00694213
0.00645733
0.00601013
0.0059326
0.00601769
0.00605902
0.00606831
0.00605489
0.0060136
0.00593442
0.00581373
0.00565955
0.00549063
0.0053321
0.00521177
0.00516087
0.00521492
0.00540203
0.00572376
0.00614958
0.0066326
0.00710798
0.00750848
0.00776258
0.00780061
0.00765754
0.00741575
0.00712636
0.00674935
0.00625016
0.00570831
0.00186362
0.00514482
0.00377716
0.00622851
0.00657194
0.00666293
0.00678926
0.00654617
0.0058849
0.00533918
0.00500376
0.00479171
0.00458885
0.00442288
0.00429667
0.00420042
0.0041204
0.00404432
0.00396479
0.00388109
0.00379912
0.00373037
0.00369168
0.00370675
0.00380673
0.00402455
0.00438017
0.0048705
0.00547143
0.00612242
0.00667588
0.00698961
0.00714079
0.00717542
0.00709739
0.00686048
0.00626024
0.00517541
0.00176799
0.00255069
0.0030083
0.00353065
0.00186952
0.00190303
0.00206648
0.00211697
0.00208856
0.00195978
0.00181519
0.0016892
0.00158221
0.00148992
0.00141179
0.00134389
0.00128392
0.00123043
0.00118234
0.00113876
0.00109892
0.00106225
0.00102839
0.000997303
0.000969378
0.000945551
0.000927647
0.000918839
0.00092403
0.00094953
0.00100101
0.00107869
0.00118688
0.0013333
0.00149422
0.00164024
0.00174053
0.00175855
0.00169209
0.00162299
0.00147971
)
;

boundaryField
{
    floor
    {
        type            compressible::alphatWallFunction;
        Prt             0.85;
        value           nonuniform List<scalar> 
29
(
9.27228e-05
6.93019e-05
8.39309e-05
8.64727e-05
8.1698e-05
7.42547e-05
6.41677e-05
5.31824e-05
3.5807e-05
2.18611e-05
2.16521e-05
2.2795e-05
2.26721e-05
2.1869e-05
2.4003e-05
2.87533e-05
3.62483e-05
4.70665e-05
5.18874e-05
4.98626e-05
4.98619e-05
7.69273e-05
8.67144e-05
0.000140567
9.27217e-05
6.9301e-05
0.000100618
0.000137775
0.00015477
)
;
    }
    ceiling
    {
        type            compressible::alphatWallFunction;
        Prt             0.85;
        value           nonuniform List<scalar> 
43
(
0.000348097
0.00040567
0.000470292
0.000260209
0.000264591
0.000285908
0.000292446
0.00028874
0.000271968
0.000253003
0.000236348
0.000222098
0.000209722
0.00019918
0.000189964
0.000181782
0.000174447
0.000167822
0.000161791
0.000156256
0.000151138
0.000146394
0.000142023
0.000138082
0.000134708
0.000132167
0.000130916
0.000131658
0.000135283
0.000142562
0.000153456
0.000168475
0.000188552
0.000210335
0.000229877
0.00024319
0.000245574
0.000236768
0.000227572
0.000208372
0.000693858
0.00079641
0.000664411
)
;
    }
    sWall
    {
        type            compressible::alphatWallFunction;
        Prt             0.85;
        value           uniform 0.000346989;
    }
    nWall
    {
        type            compressible::alphatWallFunction;
        Prt             0.85;
        value           nonuniform List<scalar> 6(0.000167137 0.000191173 0.000228066 0.000259001 0.000246423 0.000208008);
    }
    sideWalls
    {
        type            empty;
    }
    glass1
    {
        type            compressible::alphatWallFunction;
        Prt             0.85;
        value           nonuniform List<scalar> 9(0.000217684 0.000233061 0.000249978 0.000485863 0.000529738 0.000558466 0.000587472 0.000624847 0.0006851);
    }
    glass2
    {
        type            compressible::alphatWallFunction;
        Prt             0.85;
        value           nonuniform List<scalar> 2(0.000227227 0.000254149);
    }
    sun
    {
        type            compressible::alphatWallFunction;
        Prt             0.85;
        value           nonuniform List<scalar> 
14
(
0.000222741
0.000249578
0.000272281
0.000274624
0.000234477
0.000197944
0.000165268
0.000143807
0.000129324
0.000117365
0.000108587
0.000102453
9.80542e-05
9.49731e-05
)
;
    }
    heatsource1
    {
        type            compressible::alphatWallFunction;
        Prt             0.85;
        value           nonuniform List<scalar> 3(0.000172282 0.000154395 0.000167553);
    }
    heatsource2
    {
        type            compressible::alphatWallFunction;
        Prt             0.85;
        value           nonuniform List<scalar> 4(0.000100964 7.3838e-05 7.38371e-05 0.000113915);
    }
    Table_master
    {
        type            compressible::alphatWallFunction;
        Prt             0.85;
        value           nonuniform List<scalar> 9(6.27766e-05 4.75004e-05 4.06678e-05 3.68386e-05 3.37235e-05 3.04743e-05 2.69592e-05 3.25829e-05 7.47524e-05);
    }
    Table_slave
    {
        type            compressible::alphatWallFunction;
        Prt             0.85;
        value           nonuniform List<scalar> 9(0.000135381 0.000139033 0.000143905 0.00014937 0.000155079 0.000161033 0.000165145 0.000165607 0.000161728);
    }
    inlet
    {
        type            fixedValue;
        value           uniform 1.94e-05;
    }
    outlet
    {
        type            zeroGradient;
    }
}


// ************************************************************************* //
