/*--------------------------------*- C++ -*----------------------------------*\
  =========                 |
  \\      /  F ield         | OpenFOAM: The Open Source CFD Toolbox
   \\    /   O peration     | Website:  https://openfoam.org
    \\  /    A nd           | Version:  6
     \\/     M anipulation  |
\*---------------------------------------------------------------------------*/
FoamFile
{
    version     2.0;
    format      ascii;
    class       volScalarField;
    location    "140";
    object      epsilon;
}
// * * * * * * * * * * * * * * * * * * * * * * * * * * * * * * * * * * * * * //

dimensions      [0 2 -3 0 0 0 0];

internalField   nonuniform List<scalar> 
459
(
0.000904686
0.00129328
0.00170484
0.00174927
0.00105664
0.000619786
0.000354017
0.000231353
0.000167922
0.000125725
9.99711e-05
8.43583e-05
7.42822e-05
6.77547e-05
6.32554e-05
2.80502e-05
4.76242e-05
5.18063e-05
4.41522e-05
3.38667e-05
2.27983e-05
1.39648e-05
5.38132e-06
1.94567e-06
1.9108e-06
2.10262e-06
2.08081e-06
1.94505e-06
2.3196e-06
3.33378e-06
5.52341e-06
1.02609e-05
1.30979e-05
1.18526e-05
0.00112201
0.00187613
0.00475919
0.00665241
0.00631191
0.00384062
0.00161206
0.000612425
0.000267971
0.000124646
7.6277e-05
6.51e-05
6.54001e-05
6.73239e-05
6.74505e-05
8.04642e-05
3.3168e-05
7.9999e-05
9.27865e-05
6.85996e-05
5.46312e-05
4.75233e-05
3.27061e-05
1.67011e-05
7.44314e-06
4.32291e-06
3.72883e-06
3.37883e-06
2.61811e-06
2.00412e-06
2.73491e-06
8.45009e-06
2.10766e-05
4.31692e-05
6.32531e-05
3.72886e-05
0.00140076
0.00359441
0.00373201
0.00386299
0.00424668
0.00414505
0.00358099
0.00270026
0.000868473
0.000251077
0.000101419
7.29422e-05
7.38461e-05
8.21359e-05
9.15951e-05
0.000102274
0.000114618
0.000203052
0.000185459
0.00010708
9.03838e-05
8.72639e-05
8.97406e-05
2.13597e-05
1.04285e-05
7.15775e-06
5.68455e-06
4.65629e-06
3.73258e-06
2.88914e-06
4.31229e-06
3.4241e-05
8.55906e-05
0.000113989
0.00016638
5.21558e-05
0.0117587
0.00975978
0.00736208
0.00559896
0.00450688
0.00393058
0.00350689
0.00299835
0.00213348
0.000585925
0.000161535
9.08606e-05
8.43136e-05
9.26044e-05
0.000108687
0.000137439
0.000192476
0.000289397
0.000161192
8.79282e-05
7.81311e-05
8.46487e-05
0.000101035
0.000132119
0.000192161
0.000208259
0.000231192
0.000258965
0.000290415
0.000325975
0.000352241
0.000355253
0.000330236
0.000216382
0.000177373
0.000323314
0.000215485
0.0155471
0.012951
0.0083084
0.00557417
0.00416653
0.00349873
0.00314225
0.00280989
0.00222564
0.000902498
0.000240887
0.000113225
9.4276e-05
9.4521e-05
9.70422e-05
9.87455e-05
9.96851e-05
9.5893e-05
7.60314e-05
6.85832e-05
6.99272e-05
7.67954e-05
8.76808e-05
0.000101981
0.000118646
0.000136207
0.00015825
0.000184999
0.0002157
0.000249026
0.000280857
0.000299106
0.000297705
0.000265947
0.000222105
0.000234079
0.000281709
0.000400434
0.000285966
0.000368028
0.0184387
0.0165101
0.00837115
0.00460371
0.00330171
0.00283307
0.00263995
0.0024643
0.00205317
0.000888628
0.000268988
0.000128934
0.000108467
0.000111331
0.000115522
0.00011537
0.000109504
9.95791e-05
8.89163e-05
8.21882e-05
8.06595e-05
8.43654e-05
9.24485e-05
0.00010425
0.000119792
0.000140283
0.000167477
0.000201797
0.000242256
0.000286298
0.000330556
0.000372282
0.000412526
0.000457643
0.000475985
0.000464191
0.000474126
0.000472694
0.0004172
0.000557429
0.0217172
0.0211392
0.00861931
0.00293863
0.00238178
0.00222757
0.002176
0.00209878
0.00176592
0.000799316
0.000263337
0.000135838
0.000122297
0.000132455
0.000142752
0.000146628
0.000142408
0.000131867
0.000118993
0.000107799
0.000100979
9.9601e-05
0.00010352
0.000112604
0.000127718
0.000150996
0.000184594
0.000229376
0.000284068
0.000344786
0.000407222
0.000473157
0.000557872
0.000695079
0.000931444
0.00128043
0.00154938
0.00139021
0.0010753
0.000969199
0.0265153
0.0291433
0.018512
0.00272261
0.0018749
0.00184981
0.00182918
0.00176946
0.00147939
0.000700136
0.000257912
0.000148806
0.000143199
0.000160941
0.000177447
0.000185884
0.000184462
0.000174441
0.000159503
0.000143954
0.000131282
0.000123487
0.000121351
0.000125657
0.000138498
0.000163408
0.000204129
0.000262989
0.000338919
0.000424845
0.000507941
0.000578544
0.000640612
0.000711389
0.000807771
0.000927777
0.00103877
0.00113463
0.00123751
0.000982624
0.0357444
0.056056
0.0689875
0.0112152
0.00201102
0.00175314
0.00163465
0.00153387
0.00127012
0.000626506
0.000299745
0.000202973
0.00019215
0.000207265
0.000223004
0.000231536
0.000230754
0.000221211
0.000205554
0.00018745
0.000170315
0.000156531
0.000147469
0.000144522
0.000150952
0.000171733
0.000213471
0.000283005
0.000385366
0.000518224
0.000662886
0.000792204
0.000889043
0.000953273
0.00099509
0.00103936
0.00112612
0.00129488
0.00155788
0.00140088
0.161814
0.0410656
0.00369332
0.00194176
0.00161525
0.0014533
0.00116069
0.000673283
0.000425878
0.00032883
0.000297798
0.000291835
0.0002916
0.000289016
0.000281342
0.000268355
0.000251271
0.000232111
0.000213091
0.000196123
0.000182654
0.000174053
0.000172497
0.000181704
0.000207466
0.000257645
0.000343408
0.000483301
0.000680432
0.000935678
0.00123367
0.00155417
0.00187362
0.00213454
0.00219342
0.00189142
0.00176978
0.00145411
0.0308733
0.00434955
0.00227879
0.0017991
0.00162652
0.00149142
0.00115981
0.000815829
0.000620822
0.000519239
0.000463549
0.000427103
0.000397876
0.000371132
0.000345267
0.000319985
0.000295504
0.000272261
0.000250828
0.000231838
0.000215954
0.000203913
0.000196779
0.000196384
0.000205996
0.000230986
0.000279407
0.000362197
0.000486484
0.000653607
0.000867291
0.00112489
0.00139499
0.00160704
0.00164301
0.00144407
0.00148756
0.00124176
0.00376644
0.00617578
0.00998499
0.00148339
0.00156472
0.00200393
0.00215361
0.00206434
0.00170324
0.00135222
0.00108915
0.000894706
0.000746906
0.000635332
0.000547894
0.000477699
0.000420387
0.00037295
0.000333168
0.000299376
0.000270353
0.000245273
0.000223661
0.000205355
0.000190543
0.000179887
0.000174781
0.000177737
0.000192845
0.000225914
0.00028261
0.000376302
0.000533179
0.000750176
0.000992079
0.00118531
0.00122243
0.00108885
0.00096069
0.000728177
)
;

boundaryField
{
    floor
    {
        Cmu             0.09;
        kappa           0.41;
        E               9.8;
        type            epsilonWallFunction;
        value           nonuniform List<scalar> 
29
(
6.32554e-05
2.80502e-05
4.76242e-05
5.18063e-05
4.41522e-05
3.38667e-05
2.27983e-05
1.39648e-05
5.38132e-06
1.94567e-06
1.9108e-06
2.10262e-06
2.08081e-06
1.94505e-06
2.3196e-06
3.33378e-06
5.52341e-06
1.02609e-05
1.30979e-05
1.18526e-05
1.18526e-05
3.72886e-05
5.21558e-05
0.000215485
6.32554e-05
2.80502e-05
7.9999e-05
0.000203052
0.000289397
)
;
    }
    ceiling
    {
        Cmu             0.09;
        kappa           0.41;
        E               9.8;
        type            epsilonWallFunction;
        value           nonuniform List<scalar> 
43
(
0.00376644
0.00617578
0.00998499
0.00148339
0.00156472
0.00200393
0.00215361
0.00206434
0.00170324
0.00135222
0.00108915
0.000894706
0.000746906
0.000635332
0.000547894
0.000477699
0.000420387
0.00037295
0.000333168
0.000299376
0.000270353
0.000245273
0.000223661
0.000205355
0.000190543
0.000179887
0.000174781
0.000177737
0.000192845
0.000225914
0.00028261
0.000376302
0.000533179
0.000750176
0.000992079
0.00118531
0.00122243
0.00108885
0.00096069
0.000728177
0.0357444
0.056056
0.0308733
)
;
    }
    sWall
    {
        Cmu             0.09;
        kappa           0.41;
        E               9.8;
        type            epsilonWallFunction;
        value           uniform 0.00376644;
    }
    nWall
    {
        Cmu             0.09;
        kappa           0.41;
        E               9.8;
        type            epsilonWallFunction;
        value           nonuniform List<scalar> 6(0.000368028 0.000557429 0.000969199 0.00145411 0.00124176 0.000728177);
    }
    sideWalls
    {
        type            empty;
    }
    glass1
    {
        Cmu             0.09;
        kappa           0.41;
        E               9.8;
        type            epsilonWallFunction;
        value           nonuniform List<scalar> 9(0.000904686 0.00112201 0.00140076 0.0117587 0.0155471 0.0184387 0.0217172 0.0265153 0.0357444);
    }
    glass2
    {
        Cmu             0.09;
        kappa           0.41;
        E               9.8;
        type            epsilonWallFunction;
        value           nonuniform List<scalar> 2(0.000982624 0.00140088);
    }
    sun
    {
        Cmu             0.09;
        kappa           0.41;
        E               9.8;
        type            epsilonWallFunction;
        value           nonuniform List<scalar> 
14
(
0.000904686
0.00129328
0.00170484
0.00174927
0.00105664
0.000619786
0.000354017
0.000231353
0.000167922
0.000125725
9.99711e-05
8.43583e-05
7.42822e-05
6.77547e-05
)
;
    }
    heatsource1
    {
        Cmu             0.09;
        kappa           0.41;
        E               9.8;
        type            epsilonWallFunction;
        value           nonuniform List<scalar> 3(0.000400434 0.000285966 0.000368028);
    }
    heatsource2
    {
        Cmu             0.09;
        kappa           0.41;
        E               9.8;
        type            epsilonWallFunction;
        value           nonuniform List<scalar> 4(8.04642e-05 3.3168e-05 3.3168e-05 0.000114618);
    }
    Table_master
    {
        Cmu             0.09;
        kappa           0.41;
        E               9.8;
        type            epsilonWallFunction;
        value           nonuniform List<scalar> 9(2.13597e-05 1.04285e-05 7.15775e-06 5.68455e-06 4.65629e-06 3.73258e-06 2.88914e-06 4.31229e-06 3.4241e-05);
    }
    Table_slave
    {
        Cmu             0.09;
        kappa           0.41;
        E               9.8;
        type            epsilonWallFunction;
        value           nonuniform List<scalar> 9(0.000192161 0.000208259 0.000231192 0.000258965 0.000290415 0.000325975 0.000352241 0.000355253 0.000330236);
    }
    inlet
    {
        type            turbulentMixingLengthDissipationRateInlet;
        mixingLength    0.01;
        phi             phi;
        k               k;
        value           uniform 3.77336e-06;
    }
    outlet
    {
        type            zeroGradient;
    }
}


// ************************************************************************* //
