/*--------------------------------*- C++ -*----------------------------------*\
  =========                 |
  \\      /  F ield         | OpenFOAM: The Open Source CFD Toolbox
   \\    /   O peration     | Website:  https://openfoam.org
    \\  /    A nd           | Version:  6
     \\/     M anipulation  |
\*---------------------------------------------------------------------------*/
FoamFile
{
    version     2.0;
    format      ascii;
    class       volScalarField;
    location    "140";
    object      nut;
}
// * * * * * * * * * * * * * * * * * * * * * * * * * * * * * * * * * * * * * //

dimensions      [0 2 -1 0 0 0 0];

internalField   nonuniform List<scalar> 
459
(
0.0013676
0.00154065
0.00168934
0.0017039
0.00144033
0.00120559
0.00100019
0.000867972
0.000780037
0.000708317
0.000656224
0.000620116
0.000594373
0.000576426
0.000563369
0.000429553
0.000512448
0.000527042
0.0004997
0.00045742
0.000400902
0.000340479
0.000247707
0.000176459
0.000175409
0.000181099
0.000180477
0.00017645
0.000187121
0.0002112
0.000249947
0.000307245
0.000333188
0.000322217
0.0014693
0.00260447
0.00454331
0.00618103
0.00672861
0.00597253
0.00454417
0.00324978
0.00264847
0.00264478
0.00273468
0.00253409
0.00220859
0.0018181
0.00129927
0.000610436
0.00045428
0.000609179
0.0011376
0.0013115
0.00142044
0.00128903
0.00103691
0.000666541
0.000421888
0.000353688
0.000393681
0.000399766
0.000321611
0.000248077
0.000238186
0.000306277
0.000598013
0.000994896
0.00117377
0.000472212
0.00158214
0.00226013
0.00270794
0.00336179
0.00442041
0.00525038
0.00554411
0.00533881
0.00400761
0.00321042
0.00338672
0.00328353
0.00281562
0.00227646
0.00170061
0.0011593
0.000686846
0.00083099
0.00226675
0.00208128
0.00178174
0.00145153
0.00114829
0.000392317
0.000308916
0.000272494
0.000252351
0.000236125
0.000219361
0.000201413
0.000230073
0.000459108
0.00107708
0.00148383
0.00143683
0.000528124
0.00321543
0.00360521
0.00355646
0.00349257
0.00372498
0.00430928
0.00497644
0.00545245
0.00525277
0.00412418
0.00399212
0.00418056
0.00373163
0.00307446
0.0023455
0.00165287
0.00115022
0.000935181
0.00226074
0.00231932
0.00215467
0.00185896
0.00151628
0.00113673
0.000815798
0.00083794
0.000867601
0.000901009
0.000936075
0.0009728
0.000998264
0.00100112
0.000977085
0.00119721
0.00156132
0.00215516
0.000847644
0.00352866
0.00434094
0.00410245
0.00381074
0.00375751
0.00409426
0.0047238
0.00539319
0.00562451
0.00486524
0.00465361
0.00526641
0.00528223
0.00503328
0.0047367
0.00441176
0.00411066
0.00391188
0.00393978
0.00384026
0.00370588
0.00361217
0.00356577
0.00355483
0.00358895
0.00371562
0.00386762
0.00402029
0.0041462
0.00422146
0.0042209
0.00413043
0.00397346
0.00376136
0.00327896
0.00288084
0.00228797
0.00104224
0.000931572
0.00101321
0.0037351
0.00486104
0.00433032
0.00382319
0.00371435
0.00399318
0.00462083
0.00538173
0.00578352
0.00526847
0.00517155
0.00592312
0.00618799
0.00616531
0.00609948
0.00598838
0.00581109
0.00558155
0.00533038
0.0050651
0.00484258
0.00469819
0.00462549
0.0046067
0.0046324
0.00470162
0.00479746
0.00488856
0.0049372
0.0049147
0.00481695
0.0046709
0.00453159
0.00445707
0.00437217
0.00414301
0.00375365
0.00312222
0.00247559
0.00116365
0.00394452
0.00485284
0.0037595
0.00357262
0.00365736
0.00397614
0.00462722
0.00541943
0.00582188
0.00543481
0.00535546
0.00614249
0.00650669
0.00658085
0.00660676
0.0065778
0.0064642
0.00626607
0.00601162
0.00574143
0.00549932
0.0053128
0.00518292
0.00509939
0.00505887
0.00506724
0.0051147
0.00516345
0.00516096
0.00506384
0.00486666
0.0046246
0.00444639
0.00444762
0.00466153
0.00494243
0.00483465
0.0043134
0.00367333
0.00139912
0.00421592
0.00470185
0.00382796
0.00341116
0.00383544
0.00418229
0.00475055
0.00544444
0.00577873
0.00548157
0.00538476
0.00602495
0.00640809
0.00652769
0.00659681
0.00661064
0.00654425
0.00639287
0.00617747
0.00593552
0.00570815
0.00552523
0.00539546
0.00531263
0.0052722
0.00528189
0.00534107
0.00541505
0.00543669
0.00533056
0.00504929
0.00461543
0.00412566
0.00368819
0.00334917
0.00306666
0.00275465
0.00244529
0.0021885
0.00140563
0.00465725
0.00541087
0.00671794
0.00357336
0.00414185
0.00473754
0.00507583
0.00556791
0.00580657
0.00553472
0.00527258
0.00556254
0.00590598
0.00605889
0.0061377
0.00616402
0.00612855
0.00602442
0.00586035
0.0056608
0.00545896
0.00528753
0.00517139
0.00512653
0.00515806
0.00525938
0.00541872
0.00561315
0.00579279
0.00587858
0.00578141
0.00546106
0.00497402
0.00440578
0.00382771
0.0033095
0.00291019
0.00265634
0.0025176
0.00158188
0.0106272
0.00539901
0.00407726
0.00550485
0.00564498
0.00589417
0.00597906
0.00555674
0.00516988
0.00510235
0.00517524
0.00521074
0.00521875
0.00520721
0.00517164
0.00510344
0.00499949
0.00486672
0.00472126
0.00458471
0.00448102
0.00443699
0.00448316
0.00464368
0.00491986
0.00528543
0.00570009
0.00610814
0.00645194
0.00667016
0.00670295
0.0065803
0.00637292
0.00612459
0.00580086
0.00537184
0.00490569
0.00160165
0.00443471
0.00325832
0.00537401
0.00567058
0.00574773
0.00585331
0.00563915
0.00506691
0.00459573
0.00430632
0.00412343
0.0039486
0.00380561
0.00369686
0.0036139
0.00354492
0.00347931
0.00341072
0.00333854
0.00326785
0.00320852
0.00317503
0.00318775
0.00327348
0.00346048
0.00376591
0.00418705
0.00470315
0.00526217
0.00573737
0.00600665
0.00613643
0.00616622
0.00609929
0.00589578
0.00537987
0.00444752
0.00151945
0.00219925
0.00259339
0.00304386
0.00161242
0.00164148
0.00178256
0.00182594
0.00180048
0.00168879
0.00156378
0.00145499
0.00136266
0.00128305
0.00121567
0.0011571
0.00110538
0.00105924
0.00101777
0.000980185
0.000945833
0.000914204
0.000884998
0.00085819
0.000834099
0.000813535
0.000798066
0.00079042
0.000794809
0.000816655
0.000860829
0.000927512
0.00102041
0.00114614
0.00128435
0.00140975
0.00149588
0.00151132
0.00145417
0.00139476
0.00127173
)
;

boundaryField
{
    floor
    {
        type            nutkWallFunction;
        Cmu             0.09;
        kappa           0.41;
        E               9.8;
        value           nonuniform List<scalar> 
29
(
6.7751e-05
5.06369e-05
6.13103e-05
6.3165e-05
5.96818e-05
5.42498e-05
4.68868e-05
3.8867e-05
2.61779e-05
1.59878e-05
1.58336e-05
1.6667e-05
1.65761e-05
1.59885e-05
1.75467e-05
2.10154e-05
2.64871e-05
3.43824e-05
3.79009e-05
3.64268e-05
3.64267e-05
5.61713e-05
6.33135e-05
0.000102621
6.7751e-05
5.06368e-05
7.34973e-05
0.000100625
0.000113059
)
;
    }
    ceiling
    {
        type            nutkWallFunction;
        Cmu             0.09;
        kappa           0.41;
        E               9.8;
        value           nonuniform List<scalar> 
43
(
0.000255098
0.000297247
0.000344618
0.00019074
0.00019397
0.000209608
0.000214383
0.000211562
0.000199199
0.000185263
0.000173039
0.000162588
0.000153514
0.000145786
0.00013903
0.000133032
0.000127656
0.0001228
0.00011838
0.000114322
0.000110571
0.000107094
0.00010389
0.000101001
9.85275e-05
9.66623e-05
9.57402e-05
9.62746e-05
9.89161e-05
0.000104227
0.000112178
0.000123141
0.000137798
0.0001537
0.000167967
0.000177686
0.000179423
0.000172986
0.000166265
0.00015225
0.000509099
0.000583821
0.000486783
)
;
    }
    sWall
    {
        type            nutkWallFunction;
        Cmu             0.09;
        kappa           0.41;
        E               9.8;
        value           uniform 0.000255159;
    }
    nWall
    {
        type            nutkWallFunction;
        Cmu             0.09;
        kappa           0.41;
        E               9.8;
        value           nonuniform List<scalar> 6(0.000122269 0.000139793 0.000166744 0.000189527 0.000180334 0.000152262);
    }
    sideWalls
    {
        type            empty;
    }
    glass1
    {
        type            nutkWallFunction;
        Cmu             0.09;
        kappa           0.41;
        E               9.8;
        value           nonuniform List<scalar> 9(0.000163349 0.000174889 0.000187582 0.000362937 0.000395337 0.000416505 0.000437855 0.000465354 0.000509704);
    }
    glass2
    {
        type            nutkWallFunction;
        Cmu             0.09;
        kappa           0.41;
        E               9.8;
        value           nonuniform List<scalar> 2(0.000167545 0.000187396);
    }
    sun
    {
        type            nutkWallFunction;
        Cmu             0.09;
        kappa           0.41;
        E               9.8;
        value           nonuniform List<scalar> 
14
(
0.000163163
0.000182675
0.000199247
0.000200854
0.000171372
0.000144622
0.000120734
0.000105055
9.44752e-05
8.57412e-05
7.93314e-05
7.48531e-05
7.16413e-05
6.93923e-05
)
;
    }
    heatsource1
    {
        type            nutkWallFunction;
        Cmu             0.09;
        kappa           0.41;
        E               9.8;
        value           nonuniform List<scalar> 3(0.000125652 0.000112619 0.000122261);
    }
    heatsource2
    {
        type            nutkWallFunction;
        Cmu             0.09;
        kappa           0.41;
        E               9.8;
        value           nonuniform List<scalar> 4(7.365e-05 5.38499e-05 5.38499e-05 8.31055e-05);
    }
    Table_master
    {
        type            nutkWallFunction;
        Cmu             0.09;
        kappa           0.41;
        E               9.8;
        value           nonuniform List<scalar> 9(4.57677e-05 3.46245e-05 2.96399e-05 2.68457e-05 2.45725e-05 2.22019e-05 1.96377e-05 2.37322e-05 5.44788e-05);
    }
    Table_slave
    {
        type            nutkWallFunction;
        Cmu             0.09;
        kappa           0.41;
        E               9.8;
        value           nonuniform List<scalar> 9(9.8802e-05 0.000101467 0.000105024 0.000109013 0.000113181 0.000117526 0.000120526 0.000120861 0.000118026);
    }
    inlet
    {
        type            calculated;
        value           uniform 3.3541e-05;
    }
    outlet
    {
        type            calculated;
        value           nonuniform List<scalar> 2(0.00219925 0.00259339);
    }
}


// ************************************************************************* //
