/*--------------------------------*- C++ -*----------------------------------*\
  =========                 |
  \\      /  F ield         | OpenFOAM: The Open Source CFD Toolbox
   \\    /   O peration     | Website:  https://openfoam.org
    \\  /    A nd           | Version:  6
     \\/     M anipulation  |
\*---------------------------------------------------------------------------*/
FoamFile
{
    version     2.0;
    format      ascii;
    class       surfaceScalarField;
    location    "140";
    object      phi;
}
// * * * * * * * * * * * * * * * * * * * * * * * * * * * * * * * * * * * * * //

dimensions      [1 0 -1 0 0 0 0];

internalField   nonuniform List<scalar> 
852
(
-0.00348365
0.00353703
-0.00425151
0.000767713
-0.00397033
-0.000281262
-0.00358949
-0.000380887
-0.00366292
7.3455e-05
-0.0038104
0.000147526
-0.00373308
-7.72409e-05
-0.00346867
-0.000264329
-0.00298641
-0.000482163
-0.00241367
-0.000572639
-0.00187524
-0.000538323
-0.00140463
-0.000470512
-0.000982354
-0.000422171
-0.000536895
-0.000445355
-0.000533062
-0.000410736
0.000415474
-0.000153309
-0.000257344
0.000251365
-0.000404587
0.000544478
-0.000293026
0.000670172
-0.000125609
0.000560694
0.000109555
0.000210856
0.000349903
-0.000170192
0.000381062
-0.000351672
0.00018147
-0.000404612
5.29276e-05
-0.000341362
-6.325e-05
-0.000157115
-0.000184233
0.00017446
-0.000331557
0.000540506
-0.000366042
0.000747656
-0.000207142
0.000876341
-0.000128676
0.000980425
-0.000104079
0.000883365
9.70566e-05
0.000889344
-0.00146969
0.00515727
-7.90939e-06
-0.000694347
0.00146003
-0.00174947
0.00135683
-0.000277998
0.000441697
0.000988278
-0.000856171
0.0014452
-0.00207222
0.00113881
-0.00273574
0.000399259
-0.00262406
-0.000593747
-0.0023061
-0.000890483
-0.00195632
-0.00088799
-0.00160188
-0.00082483
-0.00121731
-0.000806632
-0.000811733
-0.000850812
-0.000442111
-0.000902568
0.000269942
-0.000711988
0.00026999
0.000885132
-0.00045863
0.000700373
-7.24908e-05
0.000333722
-3.78418e-05
0.000237038
-0.000196247
0.000377512
-0.000265992
0.000421371
6.57838e-05
0.000310716
0.000460633
0.000341577
0.00035026
0.00033712
0.000185983
0.000311359
7.87566e-05
0.000275784
-2.76058e-05
0.000252656
-0.000161032
0.000259725
-0.000338551
0.000357801
-0.000464063
0.000317413
-0.000166681
0.000343288
-0.000154463
0.000550571
-0.000311307
0.000517296
0.000130359
0.0014207
0.00525028
0.000143091
0.0078253
-0.00326951
0.00784296
-0.00176725
0.00688325
0.000681563
0.00543588
0.00243546
0.00367696
0.00320392
0.00167796
0.00313764
-0.00034228
0.00241939
-0.00172529
0.000789342
-0.00194103
-0.000674619
-0.00191559
-0.000913307
-0.00182742
-0.000912875
-0.00169719
-0.000936738
-0.00154375
-0.00100413
-0.00138974
-0.00105647
-0.00110243
-0.000999181
-0.000832325
-0.000754953
0.000310791
-0.000998827
0.000171492
-0.00101565
-2.09199e-05
-0.000965593
-0.000246211
-0.000796581
-0.000434918
-0.000117002
-0.000613719
0.000343871
0.000694369
0.000880595
0.000959605
0.000932268
0.000771519
0.000433253
-3.05736e-05
-0.000196996
-8.75868e-05
-0.000263787
-0.000577184
0.000178335
-0.000828733
0.000381942
0.000613564
0.00858848
-0.00820778
0.0106648
-0.00534564
0.0101806
-0.00128293
0.00900123
0.00186106
0.0074309
0.00400583
0.00555255
0.00508221
0.0035508
0.00513928
0.00163242
0.00433765
-0.000294555
0.00271628
-0.00134658
0.000377538
-0.00174488
-0.000514875
-0.00195395
-0.000703685
-0.00210911
-0.000781458
-0.00226739
-0.000845736
-0.00244921
-0.000874531
-0.00263534
-0.000812937
-0.00295253
-0.000515033
-0.0026489
-0.000288498
-0.00229112
-4.68984e-05
-0.00214008
2.05466e-05
-0.00205581
-0.000105094
-0.00203381
-0.000268116
-0.00205835
-0.000410298
-0.0022226
-0.000449377
-0.00188599
-0.000336674
-0.00156026
-0.000325792
-0.00119323
-0.000367082
-0.000761118
-0.000432174
-0.000250477
-0.000510698
0.000322885
-0.000573417
0.00090264
-0.00057981
0.00141709
-0.000514501
0.00176673
-0.000349696
0.00153497
-3.19344e-05
0.00120341
0.000509979
0.000621012
0.000964419
0.00125539
0.00492609
-0.0128402
0.00627393
-0.00669331
0.00621951
-0.00122833
0.00583606
0.00224469
0.00514553
0.00469648
0.00410528
0.0061225
0.00284117
0.00640334
0.00152024
0.0056585
0.000246857
0.00398966
-0.000820173
0.00144471
-0.00142539
9.04829e-05
-0.0017625
-0.00036644
-0.00199893
-0.00054491
-0.00219918
-0.000645375
-0.00238256
-0.000691034
-0.00254339
-0.000652003
-0.00256512
-0.000493194
-0.0025301
-0.000323424
-0.00237488
-0.000202018
-0.00219026
-0.000163985
-0.0020655
-0.000229761
-0.0019966
-0.000336926
-0.00196839
-0.00043841
-0.00192969
-0.000487983
-0.00176451
-0.000501759
-0.00154167
-0.000548534
-0.00127654
-0.000632113
-0.000966704
-0.000741905
-0.000614073
-0.000863223
-0.000218754
-0.000968629
0.000216349
-0.00101481
0.000657803
-0.000955849
0.00105784
-0.000749628
0.00133924
-0.000313236
0.0015527
0.000296621
0.00166139
0.000855815
0.00197257
0.000944286
0.00109696
0.000875472
-0.00040159
0.00149841
-0.000349769
0.0015925
-0.0140802
0.00221621
-0.00731683
0.00279601
-0.00180792
0.00256067
0.00248023
0.00230628
0.00495102
0.00189783
0.00653101
0.00134069
0.00696046
0.000701839
0.00629732
7.67318e-05
0.00461483
-0.00056483
0.00208649
-0.00107506
0.000600879
-0.00139963
-4.17421e-05
-0.00161761
-0.000326816
-0.0017902
-0.00047267
-0.00193793
-0.000543193
-0.00205042
-0.000539403
-0.00207788
-0.000465625
-0.00203606
-0.000365144
-0.00194456
-0.000293415
-0.00183578
-0.000272667
-0.00175483
-0.000310607
-0.00171
-0.000381665
-0.00169006
-0.000458252
-0.00165781
-0.000520139
-0.00158191
-0.000577557
-0.00147136
-0.000658979
-0.00133379
-0.000769578
-0.00117206
-0.000903527
-0.000989157
-0.00104602
-0.000786556
-0.00117112
-0.000557843
-0.00124341
-0.000287951
-0.00122563
4.49409e-05
-0.00108241
0.000494403
-0.000762592
0.00109372
-0.000302583
0.00181011
0.000139527
0.0024323
0.00032219
0.00275558
0.000552288
0.00283211
0.00142195
0.00254043
-0.000509018
-0.0131604
-9.55461e-05
-0.00773009
0.000127476
-0.00203074
-0.000526058
0.00313395
-0.000398897
0.004824
-0.000172251
0.00630444
-7.29167e-05
0.00686114
-9.94497e-05
0.00632389
-0.000192121
0.00470766
-0.000445333
0.00233995
-0.000719657
0.00087538
-0.000939566
0.000178295
-0.00110004
-0.000166228
-0.00122467
-0.00034793
-0.00132711
-0.000440643
-0.00140072
-0.00046568
-0.00142786
-0.000438373
-0.00140624
-0.000386655
-0.00135596
-0.000343583
-0.00129977
-0.00032876
-0.0012621
-0.000348171
-0.00125181
-0.000391852
-0.00126372
-0.000446247
-0.00128096
-0.00050279
-0.00129159
-0.000566827
-0.00129892
-0.000651538
-0.00130824
-0.00076015
-0.00132457
-0.000887085
-0.00135226
-0.0010182
-0.00139184
-0.00113143
-0.00143392
-0.00120121
-0.00145676
-0.00120269
-0.00142735
-0.00111171
-0.00127797
-0.000911866
-0.00093849
-0.000641953
-0.000362564
-0.000436273
0.000489748
-0.00052999
0.00164763
-0.000605467
0.0021287
0.000940972
0.00472837
-0.00294931
-0.00974596
-0.00436319
-0.00631599
-0.00386378
-0.00252997
-0.00347395
0.00274428
-0.00260855
0.00395874
-0.00174583
0.00544181
-0.00106619
0.00618156
-0.000584832
0.00584265
-0.000270218
0.00439329
-0.000186067
0.00225609
-0.000255291
0.000944798
-0.000351899
0.00027504
-0.000437881
-8.01284e-05
-0.0005102
-0.000275497
-0.000574006
-0.000376724
-0.000624191
-0.000415382
-0.000651202
-0.000411249
-0.000652186
-0.000385557
-0.000636771
-0.000358886
-0.00061999
-0.00034543
-0.000617231
-0.000350819
-0.000636889
-0.000372085
-0.000679774
-0.000403255
-0.000741969
-0.000440487
-0.000822576
-0.000486111
-0.000928581
-0.000545422
-0.00106948
-0.000619131
-0.00125711
-0.00069934
-0.00150612
-0.000769078
-0.00183234
-0.000805097
-0.00224642
-0.000787024
-0.00274907
-0.000699936
-0.00332662
-0.000534059
-0.00393838
-0.000299991
-0.00453895
-4.12654e-05
-0.00513085
0.000155753
-0.00583845
0.000177748
-0.00643393
-9.8394e-06
-0.00519898
-0.000293819
-0.000146687
-0.00923795
-0.0155551
-0.010281
-0.00780388
-0.00621311
-0.00132342
-0.00415915
0.00190492
-0.00270193
0.00398472
-0.00154355
0.00502332
-0.000655261
0.00495455
4.79699e-05
0.00369036
0.000383104
0.00192128
0.000465696
0.000862439
0.000461652
0.000279253
0.000430637
-4.89779e-05
0.000390002
-0.000234738
0.000343366
-0.000329969
0.000296383
-0.000368282
0.000257056
-0.000371805
0.000229222
-0.000357606
0.000209705
-0.000339251
0.00019031
-0.000325916
0.000161503
-0.000321893
0.000116358
-0.000326823
5.12039e-05
-0.000337983
-3.60306e-05
-0.000353137
-0.000149278
-0.000372748
-0.000296984
-0.000397599
-0.00049021
-0.000425784
-0.000741916
-0.00044751
-0.00106897
-0.000441902
-0.00149266
-0.000381287
-0.0020248
-0.000254767
-0.0026496
-7.50143e-05
-0.00333477
0.000151218
-0.00405661
0.000421972
-0.00479282
0.000695057
-0.00554257
0.000905619
-0.00637641
0.00101172
-0.00714386
0.000757717
-0.00594963
-0.00148794
-0.00576418
-0.00835992
0.000988946
-0.00631134
-0.00337178
-0.00445765
5.1423e-05
-0.00287043
0.00239769
-0.00145684
0.00360993
-0.000220838
0.00371882
0.00081954
0.00265032
0.00132763
0.00141352
0.00153271
0.000657628
0.00158999
0.000222189
0.00157638
-3.51915e-05
0.00152749
-0.000185689
0.00146121
-0.000263554
0.00138838
-0.00029532
0.00131693
-0.000300223
0.00125097
-0.00029153
0.00119005
-0.000278201
0.0011301
-0.00026584
0.00106553
-0.000257202
0.000991497
-0.000252664
0.000904891
-0.000251251
0.000803822
-0.000251942
0.000686045
-0.000254845
0.000549488
-0.000260916
0.00039418
-0.000270349
0.000224611
-0.000277811
5.01937e-05
-0.000267353
-0.000117798
-0.000213164
-0.000271905
-0.000100533
-0.000414705
6.79078e-05
-0.000553582
0.000290217
-0.000681125
0.000549638
-0.000770568
0.000784624
-0.000766837
0.000902012
-0.000467737
0.00071274
0.000467574
-0.000177475
0.00102423
-0.00204447
-0.00466747
-0.00181931
0.0028069
-0.00365263
-0.0015382
-0.00353762
-6.33474e-05
-0.00241517
0.00127547
-0.000883716
0.00207872
0.000714214
0.0021212
0.0019776
0.00138727
0.00263619
0.000755248
0.00293091
0.000363198
0.00302374
0.000129608
0.00300355
-1.47732e-05
0.00292078
-0.000102726
0.00280816
-0.000150761
0.00268494
-0.000171939
0.0025621
-0.000177234
0.00244479
-0.000174083
0.00233384
-0.000167114
0.00222726
-0.000159128
0.00212182
-0.000151623
0.00201439
-0.000145107
0.00190283
-0.00013956
0.0017861
-0.000135074
0.00166398
-0.000132592
0.00153733
-0.000134129
0.00140875
-0.000141624
0.00128397
-0.000152887
0.00117312
-0.000156358
0.00109194
-0.000131848
0.00105603
-6.44811e-05
0.00108411
3.99548e-05
0.00120019
0.000174262
0.00141255
0.000337405
0.00171939
0.000477909
0.00210416
0.000517361
0.00248834
0.000328688
0.00252776
-0.000216773
0.00164715
-0.00116374
-0.00293656
-0.00311077
-0.00453347
-0.00172862
-0.00327259
-0.00334201
-0.00207236
1.01887e-06
0.00211885
0.00350416
0.00425836
0.00462118
0.00475093
0.00473673
0.00463502
0.00448573
0.00431571
0.00414087
0.00396965
0.0038059
0.00365064
0.00350341
0.00336324
0.0032292
0.00310025
0.00297443
0.00284773
0.00271423
0.00257014
0.00242318
0.00230122
0.00224695
0.00229722
0.00248167
0.00282899
0.00331651
0.00384327
0.0041814
0.00397445
0.00282092
)
;

boundaryField
{
    floor
    {
        type            calculated;
        value           nonuniform List<scalar> 
29
(
0
0
0
0
0
0
0
0
0
0
0
0
0
0
0
0
0
0
0
0
-5.98334e-06
-1.40448e-05
-2.15851e-05
-2.07675e-05
-3.72993e-06
-4.66079e-06
-1.09346e-05
-1.43571e-05
-1.5032e-05
)
;
    }
    ceiling
    {
        type            calculated;
        value           nonuniform List<scalar> 
43
(
3.60292e-06
2.60999e-06
2.34046e-06
6.04405e-06
6.34856e-06
6.10396e-06
5.63167e-06
3.66098e-06
2.27553e-06
1.33147e-06
6.48224e-07
1.16617e-07
-3.35907e-07
-7.95507e-07
-1.2614e-06
-1.7341e-06
-2.21455e-06
-2.70404e-06
-3.2044e-06
-3.71819e-06
-4.24884e-06
-4.80044e-06
-5.37738e-06
-5.98347e-06
-6.62053e-06
-7.28555e-06
-7.96579e-06
-8.63212e-06
-9.23584e-06
-9.71846e-06
-1.00424e-05
-1.01659e-05
-1.00482e-05
-9.7847e-06
-9.486e-06
-9.27852e-06
-9.32824e-06
-9.70326e-06
-1.01013e-05
-1.0456e-05
2.86759e-06
1.39584e-06
1.65164e-06
)
;
    }
    sWall
    {
        type            calculated;
        value           uniform -0.000173685;
    }
    nWall
    {
        type            calculated;
        value           nonuniform List<scalar> 6(-5.19483e-05 -5.80102e-05 -5.9142e-05 -7.23719e-05 -8.36402e-05 -0.000105074);
    }
    sideWalls
    {
        type            empty;
        value           nonuniform 0();
    }
    glass1
    {
        type            calculated;
        value           nonuniform List<scalar> 9(-5.36083e-05 -0.000150854 -0.000236401 -0.000237418 -0.000293469 -0.000352296 -0.000410585 -0.000464961 -0.000510676);
    }
    glass2
    {
        type            calculated;
        value           nonuniform List<scalar> 2(-0.000323784 -0.000332019);
    }
    sun
    {
        type            calculated;
        value           uniform 0;
    }
    heatsource1
    {
        type            calculated;
        value           nonuniform List<scalar> 3(2.05276e-07 2.05496e-07 2.05895e-07);
    }
    heatsource2
    {
        type            calculated;
        value           nonuniform List<scalar> 4(5.14706e-08 5.1559e-08 0 0);
    }
    Table_master
    {
        type            calculated;
        value           nonuniform List<scalar> 9(-1.547e-07 -1.54702e-07 -1.54689e-07 -1.54703e-07 -1.54744e-07 -1.548e-07 -1.54908e-07 -1.55029e-07 -1.54907e-07);
    }
    Table_slave
    {
        type            calculated;
        value           nonuniform List<scalar> 9(1.53708e-07 1.53819e-07 1.53918e-07 1.5403e-07 1.54164e-07 1.5422e-07 1.54112e-07 1.5395e-07 1.53847e-07);
    }
    inlet
    {
        type            calculated;
        value           uniform -0.000432619;
    }
    outlet
    {
        type            calculated;
        value           nonuniform List<scalar> 2(0.00328116 0.0014204);
    }
}


// ************************************************************************* //
