/*--------------------------------*- C++ -*----------------------------------*\
  =========                 |
  \\      /  F ield         | OpenFOAM: The Open Source CFD Toolbox
   \\    /   O peration     | Website:  https://openfoam.org
    \\  /    A nd           | Version:  6
     \\/     M anipulation  |
\*---------------------------------------------------------------------------*/
FoamFile
{
    version     2.0;
    format      ascii;
    class       volScalarField;
    location    "140";
    object      T;
}
// * * * * * * * * * * * * * * * * * * * * * * * * * * * * * * * * * * * * * //

dimensions      [0 0 0 1 0 0 0];

internalField   nonuniform List<scalar> 
459
(
303.355
303.103
303.044
302.87
302.613
302.464
302.377
302.333
302.304
302.281
302.267
302.258
302.254
302.253
302.259
302.13
302.119
302.12
302.123
302.12
302.106
302.087
302.03
301.928
301.882
301.844
301.812
301.784
301.781
301.798
301.824
301.851
301.869
301.901
303.791
303.8
304.094
303.952
303.7
303.232
302.796
302.552
302.426
302.349
302.312
302.296
302.287
302.279
302.267
302.245
302.173
302.166
302.152
302.145
302.161
302.171
302.131
302.081
302.026
301.958
301.897
301.843
301.801
301.765
301.752
301.795
301.882
301.921
301.91
301.916
304.201
304.306
304.327
304.307
304.195
303.946
303.621
303.247
302.667
302.445
302.365
302.342
302.331
302.322
302.308
302.289
302.264
302.219
302.223
302.24
302.261
302.269
302.253
302.06
302.008
301.967
301.928
301.89
301.847
301.797
301.772
301.949
302.109
302.007
301.963
301.938
304.687
304.491
304.44
304.415
304.353
304.212
303.975
303.643
303.177
302.59
302.424
302.389
302.38
302.372
302.36
302.344
302.328
302.319
302.307
302.321
302.341
302.354
302.362
302.366
302.37
302.371
302.374
302.376
302.378
302.379
302.376
302.37
302.359
302.328
302.256
302.162
302.074
304.535
304.209
304.167
304.219
304.265
304.229
304.074
303.79
303.353
302.747
302.487
302.438
302.432
302.43
302.425
302.416
302.406
302.398
302.394
302.397
302.404
302.409
302.411
302.412
302.411
302.411
302.412
302.413
302.413
302.412
302.409
302.4
302.385
302.358
302.311
302.243
302.172
302.17
302.203
302.314
304.402
303.955
303.949
304.068
304.186
304.206
304.089
303.822
303.384
302.788
302.54
302.486
302.484
302.488
302.487
302.481
302.473
302.466
302.461
302.459
302.459
302.458
302.457
302.454
302.451
302.448
302.446
302.445
302.443
302.441
302.437
302.427
302.411
302.383
302.344
302.295
302.253
302.233
302.223
302.242
304.268
303.825
303.897
304.056
304.167
304.184
304.065
303.787
303.338
302.805
302.585
302.538
302.54
302.549
302.554
302.553
302.546
302.538
302.531
302.525
302.521
302.516
302.511
302.504
302.497
302.489
302.483
302.478
302.474
302.471
302.466
302.457
302.442
302.42
302.395
302.37
302.352
302.336
302.292
302.28
304.123
303.79
303.897
304.079
304.141
304.13
304.001
303.722
303.293
302.834
302.64
302.598
302.603
302.618
302.628
302.631
302.628
302.62
302.611
302.602
302.594
302.585
302.576
302.565
302.552
302.539
302.527
302.516
302.508
302.503
302.501
302.498
302.491
302.48
302.471
302.469
302.472
302.477
302.482
302.511
303.977
303.694
303.684
304.015
304.075
304.042
303.912
303.653
303.272
302.887
302.735
302.691
302.689
302.702
302.713
302.718
302.717
302.711
302.702
302.691
302.68
302.667
302.654
302.639
302.622
302.603
302.584
302.565
302.549
302.54
302.542
302.556
302.577
302.603
302.629
302.655
302.682
302.709
302.728
302.782
303.265
303.828
303.949
303.931
303.822
303.604
303.269
303.008
302.889
302.84
302.822
302.819
302.821
302.821
302.818
302.811
302.802
302.79
302.777
302.762
302.746
302.728
302.708
302.686
302.662
302.637
302.611
302.587
302.57
302.564
302.569
302.583
302.601
302.619
302.634
302.635
302.607
302.621
303.51
303.743
303.803
303.817
303.744
303.568
303.322
303.166
303.08
303.031
303.002
302.982
302.967
302.955
302.943
302.931
302.918
302.903
302.887
302.87
302.851
302.831
302.809
302.785
302.759
302.731
302.7
302.667
302.635
302.608
302.591
302.584
302.586
302.592
302.596
302.592
302.587
302.611
303.588
303.54
303.555
303.68
303.709
303.725
303.696
303.534
303.414
303.335
303.282
303.244
303.215
303.188
303.162
303.138
303.115
303.093
303.071
303.05
303.029
303.008
302.987
302.965
302.942
302.917
302.891
302.861
302.829
302.793
302.755
302.716
302.678
302.645
302.623
302.609
302.6
302.593
302.587
302.61
)
;

boundaryField
{
    floor
    {
        type            wallHeatTransfer;
        Tinf            uniform 305.2;
        alphaWall       uniform 0.24;
        value           nonuniform List<scalar> 
29
(
302.754
302.749
302.673
302.662
302.685
302.716
302.758
302.813
302.92
303.025
302.998
302.955
302.935
302.929
302.894
302.839
302.767
302.681
302.656
302.696
302.696
302.538
302.511
302.468
302.754
302.749
302.65
302.6
302.657
)
;
    }
    ceiling
    {
        type            wallHeatTransfer;
        Tinf            uniform 303.2;
        alphaWall       uniform 0.24;
        value           nonuniform List<scalar> 
43
(
303.564
303.521
303.539
303.642
303.67
303.687
303.661
303.51
303.398
303.324
303.275
303.24
303.213
303.189
303.166
303.144
303.124
303.105
303.086
303.067
303.049
303.031
303.013
302.995
302.975
302.954
302.932
302.906
302.877
302.844
302.807
302.769
302.73
302.697
302.672
302.657
302.649
302.644
302.64
302.665
303.952
303.68
303.499
)
;
    }
    sWall
    {
        type            wallHeatTransfer;
        Tinf            uniform 315.2;
        alphaWall       uniform 0.36;
        value           uniform 304.611;
    }
    nWall
    {
        type            wallHeatTransfer;
        Tinf            uniform 307.2;
        alphaWall       uniform 0.36;
        value           nonuniform List<scalar> 6(303.082 302.948 302.891 303.135 303.147 303.223);
    }
    sideWalls
    {
        type            empty;
    }
    glass1
    {
        type            wallHeatTransfer;
        Tinf            uniform 315.2;
        alphaWall       uniform 4.3;
        value           nonuniform List<scalar> 9(310.919 310.914 310.903 309.488 309.189 308.98 308.774 308.531 308.207);
    }
    glass2
    {
        type            wallHeatTransfer;
        Tinf            uniform 307.2;
        alphaWall       uniform 4.3;
        value           nonuniform List<scalar> 2(305.463 305.458);
    }
    sun
    {
        type            wallHeatTransfer;
        Tinf            uniform 305.2;
        alphaWall       uniform 0.24;
        value           nonuniform List<scalar> 
14
(
303.518
303.272
303.204
303.042
302.832
302.729
302.692
302.688
302.692
302.7
302.711
302.722
302.732
302.742
)
;
    }
    heatsource1
    {
        type            fixedGradient;
        gradient        uniform 0;
    }
    heatsource2
    {
        type            fixedGradient;
        gradient        uniform 0;
    }
    Table_master
    {
        type            zeroGradient;
    }
    Table_slave
    {
        type            zeroGradient;
    }
    inlet
    {
        type            fixedValue;
        value           uniform 290.15;
    }
    outlet
    {
        type            zeroGradient;
    }
}


// ************************************************************************* //
