/*--------------------------------*- C++ -*----------------------------------*\
  =========                 |
  \\      /  F ield         | OpenFOAM: The Open Source CFD Toolbox
   \\    /   O peration     | Website:  https://openfoam.org
    \\  /    A nd           | Version:  6
     \\/     M anipulation  |
\*---------------------------------------------------------------------------*/
FoamFile
{
    version     2.0;
    format      ascii;
    class       volVectorField;
    location    "140";
    object      U;
}
// * * * * * * * * * * * * * * * * * * * * * * * * * * * * * * * * * * * * * //

dimensions      [0 1 -1 0 0 0 0];

internalField   nonuniform List<vector> 
459
(
(-0.0265993 0.0892619 0)
(-0.184413 0.00754454 0)
(-0.16907 -0.0125609 0)
(-0.156279 -0.00613671 0)
(-0.158799 0.000168314 0)
(-0.16319 -0.00374993 0)
(-0.164708 -0.00961609 0)
(-0.155924 -0.0145754 0)
(-0.138656 -0.0190624 0)
(-0.115868 -0.0200107 0)
(-0.0921542 -0.0181707 0)
(-0.069733 -0.0157894 0)
(-0.0484084 -0.0147408 0)
(-0.0341199 -0.0166785 0)
(-0.0573441 -0.0204645 0)
(0.0423473 0.0080603 0)
(-0.0176021 -0.0122995 0)
(0.00128599 -0.0155422 0)
(0.0147372 -0.0128379 0)
(0.0251105 -0.00835535 0)
(0.0288865 -0.00133203 0)
(0.0222292 0.00699039 0)
(0.000994033 0.0102692 0)
(-0.0163813 0.00194101 0)
(-0.0177264 -0.00189148 0)
(-0.0157925 -0.00483706 0)
(-0.0099729 -0.00833749 0)
(0.00240415 -0.0132959 0)
(0.014784 -0.0139167 0)
(0.0267843 -0.00945949 0)
(0.0354561 -0.00621906 0)
(0.0399939 -0.00592362 0)
(0.0467072 -0.000508621 0)
(-0.0139823 0.0224426 0)
(0.205347 0.175221 0)
(-0.0798786 -0.031006 0)
(0.0862254 -0.0622483 0)
(0.0553982 -0.0156892 0)
(0.0405185 0.0239027 0)
(-0.00684001 0.0303802 0)
(-0.0703622 0.00667995 0)
(-0.111138 -0.0165019 0)
(-0.117084 -0.0304672 0)
(-0.106495 -0.0358801 0)
(-0.09187 -0.0338281 0)
(-0.0765839 -0.030486 0)
(-0.0603077 -0.0290435 0)
(-0.0436226 -0.030904 0)
(-0.0293985 -0.0352922 0)
(-0.0124341 -0.036369 0)
(0.0198241 0.000845799 0)
(0.113676 -0.00157823 0)
(0.0380681 -0.00389438 0)
(0.0147239 -0.00677948 0)
(0.00722785 -0.00835665 0)
(0.00817199 -0.00694095 0)
(0.0190419 0.00590007 0)
(0.0205012 0.0163832 0)
(0.0127384 0.0158286 0)
(0.0120825 0.00889877 0)
(0.0139715 0.00345498 0)
(0.0129682 -0.001993 0)
(0.0121999 -0.00801426 0)
(0.0134645 -0.0151268 0)
(0.0112663 -0.0187566 0)
(0.0117577 -0.0110312 0)
(0.0174851 -0.00854825 0)
(0.0190669 -0.0128497 0)
(0.0365563 -0.00298736 0)
(-0.0703974 0.0451575 0)
(0.475879 0.298466 0)
(0.31645 0.0272131 0)
(0.322135 -0.00707861 0)
(0.322927 0.0463358 0)
(0.274295 0.0936553 0)
(0.199183 0.111535 0)
(0.116504 0.101524 0)
(0.0314919 0.065296 0)
(-0.0629255 -0.0118255 0)
(-0.0827404 -0.0389566 0)
(-0.0838098 -0.0417792 0)
(-0.0807918 -0.0400295 0)
(-0.0757254 -0.0402668 0)
(-0.0693311 -0.0430292 0)
(-0.062679 -0.0457514 0)
(-0.0570545 -0.0436267 0)
(-0.056449 -0.0350909 0)
(0.0570188 -0.00253062 0)
(-0.0469178 0.00389801 0)
(-0.0443991 0.000900331 0)
(-0.0427411 -0.00861164 0)
(-0.039536 -0.0157533 0)
(-0.0364288 -0.0167874 0)
(0.0227228 0.0196089 0)
(0.0230056 0.0151489 0)
(0.0321552 0.0094298 0)
(0.039727 0.0046207 0)
(0.0422146 -9.99896e-06 0)
(0.0385122 -0.00535278 0)
(0.0292586 -0.0123437 0)
(0.00630189 -0.0173616 0)
(-0.0197605 -0.00219145 0)
(0.0128394 -0.00309141 0)
(-0.00288792 0.00634417 0)
(-0.0278984 0.0223183 0)
(-0.154718 0.0503764 0)
(0.719149 -0.285966 0)
(0.389205 -0.244212 0)
(0.415679 -0.126627 0)
(0.428209 0.00434824 0)
(0.369871 0.111251 0)
(0.284776 0.16821 0)
(0.195994 0.177538 0)
(0.109238 0.149548 0)
(0.0252739 0.0856217 0)
(-0.0489639 -0.011026 0)
(-0.0695132 -0.0330309 0)
(-0.0800949 -0.0361969 0)
(-0.0871724 -0.0379009 0)
(-0.0934424 -0.0398373 0)
(-0.100838 -0.0393652 0)
(-0.111337 -0.0313096 0)
(-0.123799 -0.00829894 0)
(-0.121619 0.0352852 0)
(-0.0986936 0.00863835 0)
(-0.0973868 0.00474515 0)
(-0.0899121 -0.00367613 0)
(-0.0872562 -0.0122562 0)
(-0.0890774 -0.0191336 0)
(-0.0931952 -0.0216627 0)
(-0.0890423 -0.0142373 0)
(-0.0744256 -0.0134431 0)
(-0.0591632 -0.0151908 0)
(-0.0419768 -0.0178576 0)
(-0.0227551 -0.0211301 0)
(0.00148878 -0.0241972 0)
(0.0266769 -0.0242337 0)
(0.0493464 -0.021378 0)
(0.0688255 -0.0161636 0)
(0.0755792 -0.00667971 0)
(0.0644358 0.0138087 0)
(0.0600098 0.028528 0)
(-0.107791 0.0402883 0)
(0.689556 -0.505648 0)
(0.130549 -0.288062 0)
(0.226926 -0.0644413 0)
(0.278529 0.0938852 0)
(0.256337 0.192998 0)
(0.206838 0.244757 0)
(0.151162 0.251639 0)
(0.0925492 0.219016 0)
(0.0335675 0.149443 0)
(-0.0219263 0.0445485 0)
(-0.0523519 -0.0096628 0)
(-0.0697486 -0.0234419 0)
(-0.0811014 -0.02884 0)
(-0.0903551 -0.0325944 0)
(-0.0989002 -0.0350535 0)
(-0.106526 -0.0348414 0)
(-0.110675 -0.0292347 0)
(-0.11034 -0.0159572 0)
(-0.105188 -0.00644972 0)
(-0.0978784 -0.00346553 0)
(-0.0908963 -0.00718815 0)
(-0.0869536 -0.0127311 0)
(-0.0855042 -0.0177315 0)
(-0.0843545 -0.0199842 0)
(-0.0798382 -0.018344 0)
(-0.0713346 -0.0195848 0)
(-0.0607186 -0.0225578 0)
(-0.0482842 -0.0267414 0)
(-0.0341345 -0.0315564 0)
(-0.0183454 -0.0356003 0)
(-0.000430577 -0.0368923 0)
(0.0183081 -0.0334304 0)
(0.0357487 -0.0236961 0)
(0.0520573 -0.0052469 0)
(0.0652366 0.0205267 0)
(0.0826689 0.0423249 0)
(0.0514087 0.050532 0)
(0.0905957 0.0440054 0)
(0.100366 0.0509959 0)
(-0.379402 -0.0275835 0)
(0.642064 -0.609246 0)
(-0.111602 -0.313758 0)
(0.0941667 -0.0509588 0)
(0.138261 0.110456 0)
(0.11988 0.217084 0)
(0.0967412 0.279978 0)
(0.0723402 0.293729 0)
(0.0437109 0.262267 0)
(0.0131302 0.189093 0)
(-0.0178937 0.0776125 0)
(-0.0373004 0.0162836 0)
(-0.0545029 -0.00843325 0)
(-0.0652451 -0.0183094 0)
(-0.0734626 -0.0234107 0)
(-0.0804873 -0.0256934 0)
(-0.0862421 -0.0248571 0)
(-0.0892694 -0.0208133 0)
(-0.0888666 -0.0155686 0)
(-0.0857108 -0.011354 0)
(-0.0810883 -0.00996904 0)
(-0.0768053 -0.0120244 0)
(-0.074189 -0.0157758 0)
(-0.0730716 -0.019675 0)
(-0.0721768 -0.0224275 0)
(-0.0698704 -0.0241364 0)
(-0.0657466 -0.0270973 0)
(-0.0603043 -0.0314711 0)
(-0.0537851 -0.0369223 0)
(-0.0463628 -0.0428302 0)
(-0.0381818 -0.0480632 0)
(-0.0291309 -0.0510177 0)
(-0.0190145 -0.0500486 0)
(-0.00752854 -0.0433119 0)
(0.00876413 -0.0266901 0)
(0.0344405 -0.000654985 0)
(0.0677118 0.0246373 0)
(0.0867903 0.030802 0)
(0.113664 0.0331659 0)
(0.139193 0.065976 0)
(-0.0281173 0.0803537 0)
(0.53381 -0.594117 0)
(-0.220561 -0.330506 0)
(0.025679 -0.0882035 0)
(0.0182571 0.134828 0)
(-0.014177 0.221591 0)
(-0.00687216 0.286977 0)
(-0.00210995 0.306239 0)
(-0.0034664 0.277622 0)
(-0.00881996 0.203485 0)
(-0.0177963 0.096669 0)
(-0.0257759 0.0327337 0)
(-0.0360608 0.00373624 0)
(-0.0442498 -0.0101398 0)
(-0.0500904 -0.017292 0)
(-0.0550241 -0.0208733 0)
(-0.0589429 -0.0214385 0)
(-0.0611595 -0.01944 0)
(-0.0612097 -0.0164884 0)
(-0.0594919 -0.0140823 0)
(-0.0569804 -0.0132823 0)
(-0.0548058 -0.0144412 0)
(-0.053772 -0.0168841 0)
(-0.0539194 -0.0197954 0)
(-0.0546584 -0.022578 0)
(-0.0552624 -0.0254675 0)
(-0.0555541 -0.0293252 0)
(-0.0557886 -0.0343523 0)
(-0.0562127 -0.040312 0)
(-0.0570699 -0.0465947 0)
(-0.0585386 -0.0521923 0)
(-0.0605301 -0.0558595 0)
(-0.0625767 -0.0564596 0)
(-0.063588 -0.0532213 0)
(-0.0607271 -0.0459506 0)
(-0.0494626 -0.0365104 0)
(-0.0255007 -0.029458 0)
(0.0016702 -0.0360735 0)
(0.0378691 -0.0427539 0)
(0.11152 0.0157389 0)
(-0.0579684 0.143033 0)
(0.334903 -0.473382 0)
(-0.291271 -0.276647 0)
(-0.205096 -0.10165 0)
(-0.101313 0.146124 0)
(-0.132882 0.199725 0)
(-0.0902829 0.262168 0)
(-0.0577964 0.28864 0)
(-0.0349477 0.267759 0)
(-0.0197457 0.199617 0)
(-0.0111552 0.101782 0)
(-0.00878959 0.0400507 0)
(-0.0125987 0.0100574 0)
(-0.0170933 -0.00510501 0)
(-0.0202624 -0.0132701 0)
(-0.0232676 -0.0175308 0)
(-0.0258576 -0.019032 0)
(-0.0276112 -0.018474 0)
(-0.0282073 -0.0169219 0)
(-0.0278009 -0.0154669 0)
(-0.0269636 -0.0148275 0)
(-0.0264147 -0.0152978 0)
(-0.0267234 -0.0166591 0)
(-0.028078 -0.0185325 0)
(-0.0303494 -0.0206536 0)
(-0.0333713 -0.0231663 0)
(-0.0372607 -0.0264472 0)
(-0.0424031 -0.0305833 0)
(-0.0492451 -0.035275 0)
(-0.0583606 -0.0398246 0)
(-0.0705045 -0.0431947 0)
(-0.0864089 -0.0442184 0)
(-0.106443 -0.0416349 0)
(-0.130208 -0.0339214 0)
(-0.156589 -0.0197005 0)
(-0.183708 0.000536816 0)
(-0.208907 0.0232833 0)
(-0.227985 0.046002 0)
(-0.241494 0.0750283 0)
(-0.289414 0.118961 0)
(-0.548782 0.191469 0)
(0.0494064 -0.325429 0)
(-0.596223 -0.248427 0)
(-0.751891 -0.199873 0)
(-0.192295 0.0491542 0)
(-0.228701 0.140288 0)
(-0.144872 0.21127 0)
(-0.0890018 0.248009 0)
(-0.0466022 0.237843 0)
(-0.0140745 0.179508 0)
(0.0105954 0.091649 0)
(0.020366 0.0400043 0)
(0.0213051 0.0125348 0)
(0.0196241 -0.00248479 0)
(0.0180251 -0.0108719 0)
(0.0159941 -0.0152269 0)
(0.0138105 -0.0170266 0)
(0.0118265 -0.0171662 0)
(0.0103344 -0.0164292 0)
(0.00935091 -0.0155352 0)
(0.00860121 -0.0149817 0)
(0.00766178 -0.014999 0)
(0.00614112 -0.0155444 0)
(0.00381464 -0.016451 0)
(0.00057502 -0.0175929 0)
(-0.00369328 -0.0190204 0)
(-0.00917519 -0.0208282 0)
(-0.0163452 -0.0229609 0)
(-0.025663 -0.0249805 0)
(-0.0377217 -0.0260378 0)
(-0.0535317 -0.0251315 0)
(-0.0741101 -0.0217604 0)
(-0.0996084 -0.0161925 0)
(-0.127966 -0.00899739 0)
(-0.158461 -0.00218329 0)
(-0.19119 0.000224116 0)
(-0.224125 -0.00718787 0)
(-0.251831 -0.0316074 0)
(-0.270529 -0.0792446 0)
(-0.309723 -0.143547 0)
(-0.583083 -0.221962 0)
(-1.66317 -0.230234 0)
(-0.0864566 -0.124976 0)
(-0.238608 0.0425326 0)
(-0.15579 0.141096 0)
(-0.0919633 0.189814 0)
(-0.0367171 0.19117 0)
(0.013896 0.139639 0)
(0.0488206 0.0743616 0)
(0.0646766 0.0349073 0)
(0.0693509 0.0125463 0)
(0.0692108 -0.000497979 0)
(0.0673281 -0.00819728 0)
(0.0645704 -0.0122461 0)
(0.0613938 -0.0139571 0)
(0.0581623 -0.0142855 0)
(0.0551422 -0.0139054 0)
(0.0524132 -0.0132968 0)
(0.0498596 -0.01277 0)
(0.0472461 -0.0124762 0)
(0.0443222 -0.0124256 0)
(0.0409052 -0.0125445 0)
(0.0368896 -0.01275 0)
(0.0321961 -0.0130169 0)
(0.0267466 -0.0133474 0)
(0.0204968 -0.0136824 0)
(0.0135732 -0.0137236 0)
(0.00630981 -0.0127702 0)
(-0.00122238 -0.00980133 0)
(-0.00842848 -0.00434132 0)
(-0.0141808 0.00363643 0)
(-0.0195111 0.014139 0)
(-0.0258239 0.0271133 0)
(-0.0314603 0.0414513 0)
(-0.0356182 0.0549367 0)
(-0.0359469 0.0641454 0)
(-0.0153468 0.0556482 0)
(0.107662 -0.0462159 0)
(-0.181324 -0.219253 0)
(-0.424823 0.0519265 0)
(0.00187193 -0.131301 0)
(-0.165363 -0.0241666 0)
(-0.133431 0.070484 0)
(-0.0734998 0.122993 0)
(-0.00426975 0.130159 0)
(0.0602575 0.0877149 0)
(0.102062 0.0459098 0)
(0.123489 0.0194521 0)
(0.131088 0.00401522 0)
(0.131466 -0.00480808 0)
(0.128311 -0.0093509 0)
(0.12365 -0.0110966 0)
(0.118338 -0.0110524 0)
(0.112894 -0.00996379 0)
(0.10764 -0.00833007 0)
(0.102702 -0.00645862 0)
(0.0980361 -0.00452224 0)
(0.0935097 -0.0025964 0)
(0.0889663 -0.000685727 0)
(0.0842802 0.00123933 0)
(0.0793784 0.00319065 0)
(0.0742356 0.00509782 0)
(0.0688734 0.00677496 0)
(0.0633793 0.00797969 0)
(0.0579335 0.00871201 0)
(0.0528371 0.00962614 0)
(0.0485554 0.0119323 0)
(0.0459099 0.0165113 0)
(0.04588 0.0224617 0)
(0.0489336 0.0287639 0)
(0.0557567 0.0363976 0)
(0.0664348 0.0437711 0)
(0.0797123 0.0474907 0)
(0.0934 0.0405657 0)
(0.110717 0.00757479 0)
(0.144451 -0.0597776 0)
(-0.158981 -0.161814 0)
(0.224237 -0.140568 0)
(-0.200575 -0.0592467 0)
(-0.196824 0.112652 0)
(-0.0609427 -0.0162482 0)
(-0.149607 0.0306029 0)
(-0.117245 0.0634025 0)
(-0.0571802 0.0916076 0)
(0.0538555 0.0912615 0)
(0.120493 0.0649744 0)
(0.168817 0.0430559 0)
(0.195151 0.0278777 0)
(0.205365 0.0172706 0)
(0.206659 0.00922276 0)
(0.202916 0.00242321 0)
(0.196882 -0.00348341 0)
(0.189716 -0.0087496 0)
(0.182106 -0.0136127 0)
(0.174527 -0.0182734 0)
(0.167244 -0.0228933 0)
(0.16035 -0.0276062 0)
(0.153838 -0.0325268 0)
(0.147661 -0.0377507 0)
(0.14177 -0.0433511 0)
(0.136121 -0.049368 0)
(0.130656 -0.0557821 0)
(0.125257 -0.0624661 0)
(0.119709 -0.0691251 0)
(0.113769 -0.0752536 0)
(0.107428 -0.0801382 0)
(0.101353 -0.0829517 0)
(0.0972738 -0.0830468 0)
(0.0970906 -0.0788061 0)
(0.101871 -0.0685019 0)
(0.113084 -0.0547509 0)
(0.13079 -0.0417415 0)
(0.152189 -0.0340427 0)
(0.171719 -0.0370368 0)
(0.18035 -0.0525654 0)
(0.185853 -0.0785831 0)
(-0.136032 -0.131002 0)
)
;

boundaryField
{
    floor
    {
        type            noSlip;
    }
    ceiling
    {
        type            noSlip;
    }
    sWall
    {
        type            noSlip;
    }
    nWall
    {
        type            noSlip;
    }
    sideWalls
    {
        type            empty;
    }
    glass1
    {
        type            noSlip;
    }
    glass2
    {
        type            noSlip;
    }
    sun
    {
        type            noSlip;
    }
    heatsource1
    {
        type            noSlip;
    }
    heatsource2
    {
        type            noSlip;
    }
    Table_master
    {
        type            noSlip;
    }
    Table_slave
    {
        type            noSlip;
    }
    inlet
    {
        type            fixedValue;
        value           uniform (0.1 0 0);
    }
    outlet
    {
        type            zeroGradient;
    }
}


// ************************************************************************* //
