/*--------------------------------*- C++ -*----------------------------------*\
  =========                 |
  \\      /  F ield         | OpenFOAM: The Open Source CFD Toolbox
   \\    /   O peration     | Website:  https://openfoam.org
    \\  /    A nd           | Version:  6
     \\/     M anipulation  |
\*---------------------------------------------------------------------------*/
FoamFile
{
    version     2.0;
    format      ascii;
    class       volScalarField;
    location    "100";
    object      epsilon;
}
// * * * * * * * * * * * * * * * * * * * * * * * * * * * * * * * * * * * * * //

dimensions      [0 2 -3 0 0 0 0];

internalField   nonuniform List<scalar> 
459
(
0.00175322
0.00256505
0.00354135
0.00375238
0.00329343
0.00285454
0.00245604
0.00211052
0.00181275
0.00155785
0.00134861
0.00116395
0.000989632
0.000811148
0.000624002
9.98614e-05
0.000152235
0.000218885
0.00030331
0.000373951
0.000379065
0.000314835
0.000251081
0.00020233
0.000166066
0.000138723
0.000117769
0.000101369
8.82209e-05
7.73592e-05
6.78369e-05
5.87403e-05
4.91065e-05
3.72279e-05
0.00231071
0.00288907
0.00448509
0.00423817
0.00361442
0.00294586
0.00234835
0.00187417
0.00151576
0.00124979
0.00105724
0.000913887
0.000801174
0.000703692
0.000581791
0.000690946
0.000485869
9.24593e-05
0.00010379
0.000176195
0.000233113
0.000269463
0.000290748
0.000318511
0.000254738
0.000195864
0.000151816
0.000119676
9.62561e-05
7.89409e-05
6.57591e-05
5.54423e-05
4.88255e-05
4.59696e-05
4.77827e-05
4.38305e-05
0.00242334
0.0038618
0.00532905
0.00492823
0.00412725
0.00326366
0.00253527
0.00198218
0.00157705
0.00128148
0.00106236
0.000894695
0.000761181
0.000650098
0.000544675
0.000519024
0.000558846
8.27393e-05
0.000130175
0.000181518
0.000233912
0.000274816
0.000313547
0.000679686
0.000452428
0.000304467
0.000210762
0.000150881
0.00011182
8.57577e-05
6.85867e-05
5.89313e-05
4.58466e-05
4.02624e-05
4.60415e-05
4.60254e-05
0.00243384
0.00646845
0.00686338
0.00597029
0.00472469
0.00356993
0.00267943
0.00205376
0.00162503
0.00131777
0.00108173
0.000892521
0.000737909
0.000611666
0.000508416
0.000451886
0.000452294
0.000554148
0.000338954
0.000267346
0.00026527
0.000304187
0.000345415
0.000391926
0.00108028
0.000871744
0.000718487
0.000604277
0.000507415
0.000419321
0.000337056
0.000259933
0.000186743
9.33684e-05
5.16891e-05
4.85502e-05
4.82631e-05
0.00473367
0.0126528
0.0104031
0.00756366
0.00538254
0.00380127
0.00273072
0.00206731
0.00160558
0.0012683
0.00102325
0.000836325
0.000688012
0.000570071
0.000480715
0.000425811
0.000426912
0.000468
0.000397674
0.000373982
0.000411186
0.000467246
0.000498487
0.000492782
0.000496419
0.000472595
0.000450365
0.00042519
0.000387925
0.000338184
0.000279193
0.00021554
0.000151338
8.79929e-05
5.0937e-05
4.43178e-05
4.3691e-05
4.55233e-05
5.01814e-05
6.64473e-05
0.0109454
0.0250361
0.0138368
0.00782323
0.00483502
0.00298184
0.00190028
0.00138946
0.00114204
0.00097754
0.000840169
0.00072149
0.000619046
0.000534691
0.000474531
0.000447034
0.000473693
0.000524132
0.000558743
0.000631644
0.000710163
0.000743884
0.000715497
0.000638853
0.000553575
0.000487435
0.000437538
0.000391553
0.000340877
0.000284562
0.000225096
0.00016689
0.000114545
7.16173e-05
4.80587e-05
4.26387e-05
4.32853e-05
5.14182e-05
0.000176922
0.000155172
0.0113806
0.0347008
0.00715162
0.00247785
0.00173914
0.00113327
0.000888541
0.000792721
0.000757809
0.000720751
0.000676836
0.000627854
0.000579091
0.000538683
0.000520935
0.000542538
0.000627361
0.000757158
0.00089373
0.00100308
0.0010234
0.000960532
0.000838218
0.00069035
0.000551588
0.000450903
0.000384121
0.000328057
0.000273199
0.000219276
0.000168919
0.000125497
9.12096e-05
6.6361e-05
5.49911e-05
5.61325e-05
6.43256e-05
9.01163e-05
0.000277402
0.000227212
0.00887389
0.0194755
0.00515697
0.00137116
0.000752435
0.000604028
0.000569624
0.000569253
0.000583539
0.000596134
0.000603298
0.000606129
0.000610075
0.000624788
0.000664487
0.000745659
0.000892804
0.00105632
0.00116406
0.00118428
0.00109769
0.00092937
0.000744999
0.00058144
0.000458173
0.000372622
0.000309803
0.000256685
0.000208801
0.00016682
0.00013302
0.000109512
9.72163e-05
9.62589e-05
0.000108318
0.000146428
0.000243529
0.000491038
0.00272376
0.000354892
0.00570822
0.00651459
0.00721984
0.00216297
0.000737433
0.000554214
0.000543916
0.000560335
0.000584357
0.000614093
0.000647535
0.000685056
0.000730118
0.000788744
0.000867981
0.000970467
0.00108712
0.00116662
0.00116489
0.00107803
0.00093063
0.000761074
0.000606548
0.000483018
0.00039164
0.000323796
0.000269579
0.000222947
0.000182575
0.000150101
0.000129004
0.000124611
0.000144142
0.000195203
0.000284128
0.000418109
0.00060714
0.000834201
0.00103354
0.000474616
0.0131663
0.00305162
0.000958795
0.000684493
0.000667589
0.000689472
0.000722665
0.000762888
0.000810222
0.000864222
0.000924679
0.000990694
0.00105857
0.00111815
0.00115113
0.00113241
0.001057
0.000942623
0.000815732
0.000698812
0.000603493
0.000530233
0.000473975
0.000428108
0.000387502
0.000349417
0.000313054
0.000279033
0.000249611
0.000229376
0.000225573
0.000247474
0.000305006
0.000405499
0.000544804
0.000690272
0.000735963
0.000617534
0.00371669
0.00235413
0.00135318
0.00105227
0.000975031
0.000953386
0.000951468
0.000962776
0.000987547
0.00102302
0.00106521
0.00111028
0.00115308
0.00118638
0.00120151
0.00119154
0.00115778
0.00110924
0.00105627
0.00100632
0.000963168
0.000927491
0.000898678
0.000875726
0.000857339
0.000841672
0.000826118
0.000807025
0.000779885
0.000740443
0.000686911
0.000623405
0.00056353
0.000526971
0.000518607
0.00057297
0.000923476
0.000829078
0.00134688
0.00154155
0.00171404
0.00138334
0.00117472
0.00117528
0.00121903
0.00127731
0.00134305
0.00141599
0.00149215
0.00156008
0.00161609
0.00165519
0.00167085
0.00165595
0.00160553
0.00152078
0.00141227
0.0012956
0.00118519
0.00108981
0.00101176
0.000948955
0.00089757
0.000853746
0.000814413
0.00077732
0.000740769
0.000703514
0.00066496
0.000625519
0.000586929
0.000552216
0.000524419
0.000503234
0.000478775
0.000458144
0.000463031
0.000452632
)
;

boundaryField
{
    floor
    {
        Cmu             0.09;
        kappa           0.41;
        E               9.8;
        type            epsilonWallFunction;
        value           nonuniform List<scalar> 
29
(
0.000624002
9.98614e-05
0.000152235
0.000218885
0.00030331
0.000373951
0.000379065
0.000314835
0.000251081
0.00020233
0.000166066
0.000138723
0.000117769
0.000101369
8.82209e-05
7.73592e-05
6.78369e-05
5.87403e-05
4.91065e-05
3.72279e-05
3.72279e-05
4.38305e-05
4.60254e-05
4.82631e-05
0.000624002
9.98614e-05
9.24593e-05
8.27393e-05
0.000554148
)
;
    }
    ceiling
    {
        Cmu             0.09;
        kappa           0.41;
        E               9.8;
        type            epsilonWallFunction;
        value           nonuniform List<scalar> 
43
(
0.00134688
0.00154155
0.00171404
0.00138334
0.00117472
0.00117528
0.00121903
0.00127731
0.00134305
0.00141599
0.00149215
0.00156008
0.00161609
0.00165519
0.00167085
0.00165595
0.00160553
0.00152078
0.00141227
0.0012956
0.00118519
0.00108981
0.00101176
0.000948955
0.00089757
0.000853746
0.000814413
0.00077732
0.000740769
0.000703514
0.00066496
0.000625519
0.000586929
0.000552216
0.000524419
0.000503234
0.000478775
0.000458144
0.000463031
0.000452632
0.00570822
0.00651459
0.00371669
)
;
    }
    sWall
    {
        Cmu             0.09;
        kappa           0.41;
        E               9.8;
        type            epsilonWallFunction;
        value           uniform 0.00134688;
    }
    nWall
    {
        Cmu             0.09;
        kappa           0.41;
        E               9.8;
        type            epsilonWallFunction;
        value           nonuniform List<scalar> 6(6.64473e-05 0.000155172 0.000227212 0.000617534 0.000829078 0.000452632);
    }
    sideWalls
    {
        type            empty;
    }
    glass1
    {
        Cmu             0.09;
        kappa           0.41;
        E               9.8;
        type            epsilonWallFunction;
        value           nonuniform List<scalar> 9(0.00175322 0.00231071 0.00242334 0.00243384 0.00473367 0.0109454 0.0113806 0.00887389 0.00570822);
    }
    glass2
    {
        Cmu             0.09;
        kappa           0.41;
        E               9.8;
        type            epsilonWallFunction;
        value           nonuniform List<scalar> 2(0.000354892 0.000474616);
    }
    sun
    {
        Cmu             0.09;
        kappa           0.41;
        E               9.8;
        type            epsilonWallFunction;
        value           nonuniform List<scalar> 
14
(
0.00175322
0.00256505
0.00354135
0.00375238
0.00329343
0.00285454
0.00245604
0.00211052
0.00181275
0.00155785
0.00134861
0.00116395
0.000989632
0.000811148
)
;
    }
    heatsource1
    {
        Cmu             0.09;
        kappa           0.41;
        E               9.8;
        type            epsilonWallFunction;
        value           nonuniform List<scalar> 3(4.55233e-05 5.01814e-05 6.64473e-05);
    }
    heatsource2
    {
        Cmu             0.09;
        kappa           0.41;
        E               9.8;
        type            epsilonWallFunction;
        value           nonuniform List<scalar> 4(0.000690946 0.000485869 0.000485869 0.000558846);
    }
    Table_master
    {
        Cmu             0.09;
        kappa           0.41;
        E               9.8;
        type            epsilonWallFunction;
        value           nonuniform List<scalar> 9(0.000679686 0.000452428 0.000304467 0.000210762 0.000150881 0.00011182 8.57577e-05 6.85867e-05 5.89313e-05);
    }
    Table_slave
    {
        Cmu             0.09;
        kappa           0.41;
        E               9.8;
        type            epsilonWallFunction;
        value           nonuniform List<scalar> 9(0.00108028 0.000871744 0.000718487 0.000604277 0.000507415 0.000419321 0.000337056 0.000259933 0.000186743);
    }
    inlet
    {
        type            turbulentMixingLengthDissipationRateInlet;
        mixingLength    0.01;
        phi             phi;
        k               k;
        value           uniform 0.000101881;
    }
    outlet
    {
        type            zeroGradient;
    }
}


// ************************************************************************* //
