/*--------------------------------*- C++ -*----------------------------------*\
  =========                 |
  \\      /  F ield         | OpenFOAM: The Open Source CFD Toolbox
   \\    /   O peration     | Website:  https://openfoam.org
    \\  /    A nd           | Version:  6
     \\/     M anipulation  |
\*---------------------------------------------------------------------------*/
FoamFile
{
    version     2.0;
    format      ascii;
    class       surfaceScalarField;
    location    "100";
    object      phi;
}
// * * * * * * * * * * * * * * * * * * * * * * * * * * * * * * * * * * * * * //

dimensions      [1 0 -1 0 0 0 0];

internalField   nonuniform List<scalar> 
852
(
-0.00367926
0.00373138
-0.00441336
0.000733551
-0.00237605
-0.00203783
0.00038922
-0.00276583
0.00276927
-0.00238064
0.00446329
-0.0016946
0.00555896
-0.00109624
0.00618408
-0.00062568
0.00643878
-0.000255232
0.00639457
4.36906e-05
0.00608853
0.000305536
0.00551572
0.000572304
0.00460462
0.000910591
0.00308897
0.00151513
0.00309025
-0.00111339
0.00111476
-0.00153991
0.000426244
-0.00112401
-0.000416193
-0.000266675
-0.000857627
0.000655876
-0.000922849
0.0014199
-0.000764322
0.00187728
-0.000457671
0.00209309
-0.000216093
0.00221721
-0.000124399
0.00230413
-8.72052e-05
0.00236544
-6.15883e-05
0.00240641
-4.12526e-05
0.00242556
-1.94367e-05
0.0024079
1.73789e-05
0.00231743
9.01847e-05
0.00209269
0.000224447
0.00168663
0.000405781
0.00104744
0.000638899
0.00104857
-0.00284182
0.00672261
-0.00211887
9.88435e-06
0.000227853
-0.00438501
0.00229509
-0.00483363
0.0038932
-0.00397936
0.00508331
-0.00288535
0.00586054
-0.0018741
0.00627428
-0.00104004
0.00639879
-0.000380341
0.00628493
0.000156983
0.00596445
0.000625479
0.0054643
0.00107193
0.00482326
0.00155112
0.00422375
0.00211413
0.00457621
0.00273727
0.00219196
0.00238366
0.00219137
-0.000477704
0.00159711
-0.000267764
0.000216016
0.00035874
-0.00104302
0.000948518
-0.00144774
0.0014706
-0.00144526
0.0018935
-0.00118755
0.00200337
-0.000567849
0.00202659
-0.00023962
0.00204911
-0.000147204
0.00206739
-0.000105774
0.00207958
-7.40666e-05
0.00208779
-4.97484e-05
0.00209152
-2.34444e-05
0.00208294
2.56714e-05
0.00202231
0.000150522
0.00178259
0.000463886
0.00137206
0.000816018
0.000803183
0.00120749
0.00185551
-0.00126103
0.00822562
0.00102131
-0.00227274
0.0031168
-0.00648093
0.00442008
-0.00613743
0.00526411
-0.00482402
0.00580564
-0.00342758
0.00609964
-0.00216883
0.00618616
-0.00112727
0.00610125
-0.000296107
0.00586579
0.000391814
0.00551062
0.000980067
0.00508068
0.00150132
0.0046331
0.00199818
0.00423361
0.0025131
0.00385821
0.00311214
0.00269932
0.00354202
0.00489015
0.000660047
0.000945193
0.0014665
-0.000590759
0.00181146
-0.00138834
0.00207601
-0.00171266
0.0023072
-0.00167683
0.00264806
-0.00152877
0.00208002
0.00184024
0.00169289
0.00158698
0.00151278
0.00146291
0.00143933
0.00146487
0.00161526
0.00133352
0.000745333
0.00101903
0.00113021
0.000593646
0.00163258
0.00245539
0.00335185
0.00520365
0.00588788
-0.00480891
0.00646942
-0.00706275
0.00651682
-0.00618531
0.0063467
-0.00465459
0.00607804
-0.00315975
0.00577411
-0.00186576
0.0054686
-0.000822598
0.00512322
4.84736e-05
0.00474895
0.000765373
0.00439529
0.0013331
0.00408587
0.00181018
0.00383421
0.00224931
0.00365514
0.00269165
0.00360436
0.0031624
0.00374626
0.00339958
0.00518445
0.00345142
0.00334626
0.00184806
0.00359149
0.000699498
0.00343735
-0.00043708
0.00326163
-0.00121305
0.00306771
-0.00151918
0.00284827
-0.00145781
0.00245109
-0.001132
0.00290316
-0.000452608
0.00303246
-0.000129827
0.00301904
1.29023e-05
0.00291202
0.000106505
0.00273011
0.000181391
0.00248229
0.000247304
0.00216368
0.000318101
0.00174704
0.000416111
0.00116193
0.00058458
0.000965234
0.00094168
0.000741745
0.00135337
0.000508527
0.00186548
0.0029724
0.00758216
-0.00197852
0.00943454
-0.00666092
0.00850009
-0.00612848
0.00708604
-0.00477187
0.00585134
-0.00342082
0.00480669
-0.00211621
0.00398081
-0.00104098
0.00333447
-0.000177243
0.00288925
0.000492877
0.00266296
0.000990983
0.00256823
0.00142725
0.00254899
0.00182889
0.0025941
0.00220369
0.00272997
0.00255527
0.00303212
0.00285974
0.00348905
0.0029421
0.00410712
0.00283282
0.00412752
0.00182712
0.00421004
0.000616477
0.00406167
-0.00028921
0.00370427
-0.000856146
0.00326165
-0.00107703
0.00281896
-0.00101558
0.00243665
-0.000750124
0.00231855
-0.000334936
0.00218984
-1.52922e-06
0.00200761
0.00019472
0.001808
0.000305719
0.0016039
0.000385087
0.00139354
0.000457271
0.00117125
0.000540002
0.00093324
0.000653723
0.000704542
0.000812885
0.000595353
0.00105049
0.000620937
0.00132744
0.000765736
0.00172036
0.0015926
0.00214522
0.000730938
0.00086113
0.000224851
0.000505539
0.000261467
0.00829728
-0.00979304
0.00794078
-0.00630467
0.00603065
-0.00421907
0.00396543
-0.00270788
0.00234974
-0.00180665
0.00118518
-0.000953156
0.000517046
-0.000373996
0.000279339
5.97013e-05
0.000325102
0.000446529
0.000475381
0.000840166
0.000669894
0.00123222
0.000899425
0.00159886
0.00117267
0.00192995
0.00150979
0.00221763
0.00194126
0.00242774
0.0024383
0.00244454
0.00303601
0.00223457
0.0034333
0.0014293
0.00349601
0.000553244
0.00329764
-9.13578e-05
0.00291379
-0.000472799
0.00244714
-0.000610874
0.00197919
-0.000548107
0.00157014
-0.000341541
0.00127501
-4.02515e-05
0.00105383
0.000219209
0.000874378
0.000373739
0.000714953
0.000464717
0.000569974
0.000529645
0.000439134
0.000587695
0.000327813
0.000650912
0.000251582
0.000729548
0.00023595
0.000828116
0.000335378
0.000950678
0.000593824
0.00106862
0.000998273
0.00131556
0.00156303
0.00158013
0.00156588
0.000857929
0.00119155
0.000879483
0.001492
-0.000682166
-0.00852656
-0.000794264
-0.00619346
-0.000108389
-0.00490626
-0.00103794
-0.0017793
-0.00169701
-0.0011484
-0.00191257
-0.000738348
-0.0018881
-0.000399125
-0.00174522
-8.37769e-05
-0.00154313
0.0002439
-0.00129568
0.000592201
-0.00100464
0.000940674
-0.000671752
0.00126546
-0.000290907
0.00154859
0.000149312
0.00177689
0.000652456
0.00192406
0.0011888
0.00190765
0.00174947
0.00167337
0.0020741
0.00110412
0.00209203
0.000534784
0.00188588
0.000114273
0.00154124
-0.00012867
0.00112708
-0.000197223
0.000706118
-0.000127632
0.000330057
3.40405e-05
5.96392e-05
0.000229696
-0.000105943
0.000384328
-0.000217049
0.000484389
-0.000301512
0.000548733
-0.000365205
0.0005929
-0.000402239
0.000624301
-0.000397837
0.00064609
-0.000328592
0.000659893
-0.000169003
0.000668123
9.96847e-05
0.000681592
0.000455699
0.000712222
0.000912153
0.000858733
0.00155563
0.000936301
0.00206208
0.000351117
0.00198576
0.000955405
0.00352027
-0.00186322
-0.00594139
-0.00383326
-0.00422421
-0.00362562
-0.00511475
-0.00350586
-0.00189975
-0.00342099
-0.00123392
-0.00334097
-0.000818989
-0.00323724
-0.00050345
-0.00309924
-0.000222357
-0.00292074
6.4845e-05
-0.00269268
0.000363607
-0.0024078
0.000655254
-0.00206692
0.000924047
-0.00167254
0.00115368
-0.00122492
0.00132873
-0.000727305
0.0014259
-0.000218288
0.00139809
0.000232745
0.00122178
0.000449521
0.000886794
0.000427677
0.000556082
0.000236223
0.000305195
-5.48252e-05
0.000161862
-0.000381331
0.000128771
-0.000684523
0.000175051
-0.00091583
0.000264842
-0.00105424
0.000367604
-0.00112695
0.000456555
-0.00116262
0.00051958
-0.00117394
0.000559588
-0.00116073
0.000579243
-0.00111404
0.000577165
-0.00101774
0.000549366
-0.00085145
0.00049319
-0.000601668
0.000417931
-0.000280134
0.000359648
6.11767e-05
0.000370505
0.000403544
0.000515968
0.000675063
0.000664419
0.000398213
0.000627658
-0.000436763
0.00178998
0.00326463
-0.00500827
-0.00920341
-0.00600963
-0.0083092
-0.00446268
-0.00344732
-0.00423058
-0.00146665
-0.00419722
-0.000852963
-0.00417087
-0.00053041
-0.0041163
-0.000277522
-0.00401131
-4.07304e-05
-0.00384199
0.00019372
-0.00360598
0.000418681
-0.00330641
0.000623923
-0.00295092
0.000797627
-0.00255051
0.000927764
-0.00212436
0.000999199
-0.00171836
0.000991512
-0.001396
0.000898857
-0.00124117
0.000731398
-0.00124349
0.000557835
-0.00135743
0.000418577
-0.00152854
0.000332423
-0.00170296
0.000302646
-0.00184455
0.000316102
-0.00193582
0.000355582
-0.00197447
0.000405727
-0.00197192
0.000453492
-0.00194364
0.000490801
-0.00189978
0.000515235
-0.00184702
0.000526009
-0.0017938
0.000523494
-0.00175646
0.000511577
-0.00176506
0.000501346
-0.00186305
0.000515486
-0.00209659
0.000592757
-0.00251417
0.000787659
-0.00315428
0.00115568
-0.0041438
0.00165356
-0.00557735
0.00206081
-0.00568827
0.00190049
-0.00225884
-0.00162286
-0.000702273
-0.0039303
-0.00114049
-0.0045485
-0.000849094
-0.00482354
-0.000578555
-0.00496257
-0.000392012
-0.0050089
-0.000231802
-0.00497676
-7.34733e-05
-0.00486894
8.53006e-05
-0.00469241
0.000241563
-0.00445236
0.000383288
-0.00415951
0.000504197
-0.00383016
0.000597842
-0.00348823
0.000656684
-0.00317004
0.000672738
-0.00291566
0.000643884
-0.00276117
0.000576324
-0.00269961
0.000495688
-0.00270362
0.000422006
-0.00273951
0.000367726
-0.00277551
0.000338074
-0.00279074
0.000330765
-0.00277591
0.000340184
-0.00273028
0.00035954
-0.00265915
0.000381809
-0.0025704
0.000401518
-0.00247149
0.000415789
-0.00236993
0.000423922
-0.00227473
0.000427765
-0.00219653
0.000432862
-0.00214557
0.000449864
-0.00212733
0.000496752
-0.00213754
0.000602495
-0.00215565
0.000805336
-0.00213629
0.0011359
-0.00206547
0.00158234
-0.00165011
0.00164503
-0.000273924
0.000523872
-0.00250286
-0.00294876
0.00223694
-0.00442203
0.000332134
-0.00518818
-8.36034e-05
-0.00560137
-0.000166016
-0.00583443
-0.000159595
-0.00595333
-0.000113531
-0.00597913
-4.83027e-05
-0.00592361
2.9162e-05
-0.00579473
0.000112074
-0.00560009
0.000188033
-0.00535078
0.000254285
-0.00506207
0.000308521
-0.00475395
0.000347954
-0.00445136
0.000369545
-0.00417976
0.000371673
-0.00395964
0.000355591
-0.00379361
0.000329042
-0.00367177
0.000299555
-0.00357789
0.00027323
-0.00349456
0.000254145
-0.00340808
0.00024368
-0.00330988
0.000241383
-0.0031963
0.000245363
-0.00306782
0.000252729
-0.00292764
0.00026073
-0.00278015
0.000267692
-0.00263001
0.000273175
-0.00248096
0.0002781
-0.00233372
0.000285003
-0.00218284
0.000298373
-0.00201267
0.000326005
-0.00179274
0.000382023
-0.00147038
0.000482468
-0.000935257
0.000600323
2.24228e-05
0.000624226
0.00125766
0.00040937
0.00193378
-0.000152669
-0.000537963
-0.00708405
-0.00889649
-0.00668312
-0.00637983
-0.00649411
-0.00669085
-0.00688091
-0.00702461
-0.00710283
-0.00710335
-0.00702082
-0.00686238
-0.00663796
-0.00635978
-0.00604285
-0.00570524
-0.00536659
-0.00504528
-0.00475183
-0.00448918
-0.00425406
-0.00403904
-0.00383532
-0.00363456
-0.00343032
-0.00321912
-0.00300023
-0.00277463
-0.00254374
-0.00230806
-0.00206558
-0.00180975
-0.00152626
-0.00118659
-0.000746196
-0.000187686
0.000394512
0.000760064
0.000560155
)
;

boundaryField
{
    floor
    {
        type            calculated;
        value           nonuniform List<scalar> 
29
(
0
0
0
0
0
0
0
0
0
0
0
0
0
0
0
0
0
0
0
0
-1.4228e-06
-4.05767e-06
-6.53542e-06
-8.78372e-06
-1.81397e-06
-1.64273e-06
-4.92575e-06
-8.42121e-06
-1.04006e-05
)
;
    }
    ceiling
    {
        type            calculated;
        value           nonuniform List<scalar> 
43
(
2.58637e-05
2.39162e-05
2.29191e-05
2.81607e-05
3.0013e-05
3.00545e-05
2.98038e-05
2.95181e-05
2.92605e-05
2.90351e-05
2.88937e-05
2.8954e-05
2.92204e-05
2.96958e-05
3.03838e-05
3.12837e-05
3.23799e-05
3.36305e-05
3.49556e-05
3.62607e-05
3.74571e-05
3.84823e-05
3.93133e-05
3.99634e-05
4.04657e-05
4.08564e-05
4.11632e-05
4.14031e-05
4.15866e-05
4.17205e-05
4.1808e-05
4.18448e-05
4.18137e-05
4.16836e-05
4.14437e-05
4.12143e-05
4.14652e-05
4.32596e-05
4.65537e-05
5.1888e-05
-2.02537e-05
-2.97515e-05
9.04946e-06
)
;
    }
    sWall
    {
        type            calculated;
        value           uniform -0.000194234;
    }
    nWall
    {
        type            calculated;
        value           nonuniform List<scalar> 6(-3.70251e-05 -3.95371e-05 -4.29843e-05 -3.03773e-05 -3.16051e-05 -3.04859e-05);
    }
    sideWalls
    {
        type            empty;
        value           nonuniform 0();
    }
    glass1
    {
        type            calculated;
        value           nonuniform List<scalar> 9(-5.26197e-05 -0.000149952 -0.000242608 -0.000330479 -0.000398541 -0.00048305 -0.000584698 -0.000722394 -0.000913291);
    }
    glass2
    {
        type            calculated;
        value           nonuniform List<scalar> 2(-0.000181585 -0.000165222);
    }
    sun
    {
        type            calculated;
        value           uniform 0;
    }
    heatsource1
    {
        type            calculated;
        value           nonuniform List<scalar> 3(2.02656e-07 2.0282e-07 2.02658e-07);
    }
    heatsource2
    {
        type            calculated;
        value           nonuniform List<scalar> 4(5.08605e-08 5.11199e-08 0 0);
    }
    Table_master
    {
        type            calculated;
        value           nonuniform List<scalar> 9(-1.52268e-07 -1.52485e-07 -1.52531e-07 -1.52542e-07 -1.52534e-07 -1.52512e-07 -1.52479e-07 -1.52428e-07 -1.52329e-07);
    }
    Table_slave
    {
        type            calculated;
        value           nonuniform List<scalar> 9(1.51926e-07 1.51887e-07 1.5183e-07 1.5178e-07 1.51765e-07 1.51777e-07 1.51812e-07 1.51868e-07 1.51955e-07);
    }
    inlet
    {
        type            calculated;
        value           uniform -0.00598463;
    }
    outlet
    {
        type            calculated;
        value           nonuniform List<scalar> 2(0.00725176 0.00178786);
    }
}


// ************************************************************************* //
