/*--------------------------------*- C++ -*----------------------------------*=========                 |
  \      /  F ield         | OpenFOAM: The Open Source CFD Toolbox
   \    /   O peration     | Website:  https://openfoam.org
    \  /    A nd           | Version:  6
     \/     M anipulation  |
\*---------------------------------------------------------------------------*/
FoamFile
{
    version     2.0;
    format      ascii;
    class       volScalarField;
    location    "1700";
    object      PPD;
}
// * * * * * * * * * * * * * * * * * * * * * * * * * * * * * * * * * * * * * //

dimensions      [0 0 0 0 0 0 0];

internalField   nonuniform List<scalar> 
459
(
70.00622587580685
59.817807536113065
58.801718164699615
57.71440491198665
56.91952977755496
56.337183114887345
56.012830675076614
55.88135565974341
56.03687108597738
56.42833528008098
57.07995598008959
58.138322317945004
59.693829422984265
61.61117926669695
62.51068381799853
65.36477156461783
64.93897208516938
64.83858748871282
64.83858748871282
64.83858748871282
64.74456422951586
64.28734243792553
64.07229539152672
63.94561391415806
63.862254259045834
63.86165016700914
63.94743782804775
64.15564666577178
64.47953881369563
64.96861538397457
65.59162790991667
65.2396784738349
63.754956387502155
62.66369456896342
69.28678300579574
60.74533242419616
60.710751088499634
59.79670773455039
59.23696542776429
58.853692023873606
58.63623503018546
58.60785697189961
58.68838855979013
58.859524318041444
59.09213963605344
59.516595314201105
60.28044294174875
61.31995110938661
62.45207447460288
63.60312580824334
63.29902824006632
63.434068918780284
64.83858748871282
64.7632508166734
64.30864991249915
63.91485010396115
63.62566650799661
63.50336105470233
63.44779370051334
63.42798126455994
63.41396428507948
63.473761645665505
63.59137920253974
63.772853630752124
63.962718350468165
64.15804288510247
64.39238237524924
64.91388285734698
64.00767601886527
60.368467438288114
72.22828320750773
60.737573247559304
62.42579326605175
62.00898930225426
62.00043424234886
62.02263744311165
62.08220657033204
62.178028250224
62.26655774204745
62.103907536221705
61.622620064917484
61.0699684570614
60.78472405550191
61.03692985633019
62.1955004394455
63.805533677447684
63.628441124005455
59.81731850637052
61.77280505177871
62.49673705766799
62.868496106343194
63.13212412745893
63.3055866924723
63.48999025594144
63.70514193064359
63.87648850090153
64.08837042610426
64.31622997513189
64.55117058549429
64.64595263156502
64.52186742302132
63.99535948925718
63.67972104540517
64.08541983801749
62.861595582717264
58.89584421520322
76.3222030204074
60.891568383399736
63.62495758970367
63.992292260914525
64.79873612832003
65.52185063774513
66.13943439403226
66.56310626937915
66.5990904518375
65.74398624754639
64.09275899141447
62.204071158459286
60.76657315444198
60.27214722792662
61.06125857182707
62.82667322344358
63.27803144372308
61.430417700084305
60.579808820326434
61.688581966639475
62.78639749059643
63.55030253330562
64.08968115233662
64.27133458794722
64.16344355047619
64.07283612909904
64.0494885872695
64.08241028473518
64.21885693350711
64.45579825118068
64.95585175423327
65.87762663438482
67.5501492829391
66.35504744939814
64.91427766993034
62.158898007561326
56.28047415667162
80.48903529672022
61.87657966144535
64.62577304788385
65.54423869706493
67.25113373578446
69.00563869226079
70.59857878506037
71.72915406741903
70.98627544297261
68.5431856733798
65.42750738227673
62.36569660249606
60.18049775972403
59.35140224035856
59.82458745780866
61.164693856844565
62.2937410197377
62.39378642367197
62.50907499728251
63.58554799336272
64.93428607547303
66.10476475735393
66.70783468029245
66.88082156267835
67.1274811800464
67.47186857293026
67.86408390230412
68.30352886668155
68.58524048863373
68.63825807336696
68.73568683788992
68.8956238895317
69.0624396230279
67.63002085825174
65.37226272535523
61.729676736885715
60.48135268766567
65.63955095304384
65.15666763446544
57.00608574957303
84.03537533622838
63.94389937809968
66.69421111207865
67.12674965399509
68.95403871988088
71.46248661440863
72.55754234174624
73.83980737986124
71.9185672581955
68.529086403078
64.92091690088994
61.58116518410803
59.243014660212765
58.361828080946665
58.9856435640951
60.61638203577449
62.53908624038515
64.04255099221905
65.35104902333359
66.7572865674016
67.29981282289214
67.71717690385717
68.03520830825008
68.32788554790929
68.74101368815724
69.2006117139853
69.65789169140498
70.0889045913991
70.37502871398048
70.5177191424015
70.47018340057491
70.30359020012148
69.99331192972701
68.62693079052565
66.1736110733543
62.29484651806288
61.46887178273333
61.123518970236006
60.621775436090545
61.198592722182916
86.86458343809518
68.60200689367579
73.52086109411276
71.09427441677583
70.58739554017076
71.32260445355654
72.14280993718877
71.43976688363429
69.55525975050517
66.49299313407758
62.85074469181096
59.61015544087797
57.64110970145522
57.37188951767649
58.69459606473397
61.17568701405931
64.17830008955158
66.55935019778295
67.44730620560266
68.15726208512402
68.74101368815724
69.17647953848476
69.56181823011988
69.94547508246617
70.35122276460177
70.73128438954723
71.06236011876027
71.25091620125998
71.3450204445957
71.32150529790084
71.18026181727345
70.89699650335464
70.49395474630008
69.77783473797986
67.60924160545265
64.13918935023551
62.34047561132953
61.09485432190356
59.48486104042188
63.589542905272125
90.67472129468737
82.77260664027648
81.07687118338477
76.63197435281263
74.36059947352547
73.0463023131068
71.87416193932415
69.92268306555556
66.76820706449779
62.737597661613755
58.84593683696181
56.25274769234414
55.50628560910716
56.71186800946902
59.586550396695074
63.559737837645194
66.70783468029245
68.15726208512402
69.1040445833121
69.72987742546678
70.20824267899104
70.63643654217384
70.99153288023504
71.2979828688496
71.5328783282905
71.69686739522963
71.76703713392587
71.72026475222158
71.62663077102818
71.48595787007409
71.2979828688496
71.06236011876027
70.73128438954723
70.18438869014173
69.32117607256627
68.42525157070331
67.68039958213825
66.79114833280107
63.401778145829155
57.859244071753196
94.76077406589945
91.7492925250707
86.79914294244607
81.12761898092478
76.37130773927296
72.67710603241483
69.40016249457388
64.5935985196565
58.82767068481314
54.05251500904579
51.54794422179431
51.608134918762296
53.923269243883986
58.03791477267289
63.44618859908552
66.68310065933869
68.78949955566678
69.89761132827722
70.61270703831882
70.62404964653035
70.62183276161599
70.68095029766471
70.7227745016094
70.72301186392768
70.67138815428224
70.50653723904692
70.25150458902215
69.89372490061078
69.45669367553086
68.98959063999308
68.4632727142987
67.94407632142538
67.41591270987179
66.75064918788775
65.95618090400835
65.16963678151906
64.46959833111039
63.943683492995255
63.244200766597146
61.7491069464397
98.58227570520063
20.77146233596187
5.0000155678263525
9.572599664616803
15.598585364945038
21.47852048184373
28.095938578609974
35.35711446970312
43.13438945006823
51.14484090729492
59.02531072447644
63.57780643000967
67.47186857293026
69.33759324208259
69.50412297381358
69.75680993260531
69.96692662190046
70.14801196992535
70.29851313079024
70.3785200338013
70.39560671888297
70.31119529848455
70.1621099853076
69.92930882447735
69.59859554908851
69.22398872983835
68.848236555381
68.49260570054375
68.17962150559292
67.95364530540172
67.77817130264114
67.62613046647536
67.51695608635492
67.50067109541322
67.86478770863782
69.22088820553519
73.58993087302402
66.7347277383009
85.64853897088122
11.761179338489598
6.8404997716166065
16.601288560444402
25.88760084637117
33.92898881953312
41.39629286083778
48.66763503060772
56.16064793709431
62.281385174494574
65.46082603016211
66.73105809011778
67.74342512942223
68.5297040957244
69.09614592999836
69.55127557305974
69.91344523895735
70.20633899872192
70.44977149745264
70.60974385247331
70.6954781845722
70.6908000898441
70.5846062416523
70.37851270036708
70.11616792707147
69.80940608709147
69.5317767324036
69.31887876438131
69.18731752963437
69.21822287155085
69.43989901347747
69.84577866834957
70.31641158231702
70.86169503046712
71.8685694139908
72.94559329233643
68.59214384141315
72.31293605357062
19.92334289149214
25.465111460940733
20.576660456689865
7.773507330879781
20.21829923018757
31.506764348478086
41.600684954519586
50.144341496280965
56.31105602208645
60.12873958125017
62.70165112879871
64.49084760409646
65.80390379594547
66.85561308904782
67.66169757013898
68.33882260093559
68.91353983894209
69.3863918397964
69.83850028669659
70.23051857421811
70.58964102481433
70.88756075019536
71.16123129664511
71.35089001759918
71.47091889238305
71.51513987482068
71.44410328292739
71.27364785662817
71.03275086274046
70.79016405795782
70.6859250846298
70.84796794373705
71.45764848786385
72.30275635600898
72.34915046989947
72.48814799097666
71.80922616591997
70.00782446171424
70.6376340007235
65.13092275081331
)
;

boundaryField
{
    ".*"
    {
        type            zeroGradient;
    }
}


// ************************************************************************* //
