/*--------------------------------*- C++ -*----------------------------------*\
  =========                 |
  \\      /  F ield         | OpenFOAM: The Open Source CFD Toolbox
   \\    /   O peration     | Website:  https://openfoam.org
    \\  /    A nd           | Version:  6
     \\/     M anipulation  |
\*---------------------------------------------------------------------------*/
FoamFile
{
    version     2.0;
    format      ascii;
    class       volScalarField;
    location    "1900";
    object      alphat;
}
// * * * * * * * * * * * * * * * * * * * * * * * * * * * * * * * * * * * * * //

dimensions      [1 -1 -1 0 0 0 0];

internalField   nonuniform List<scalar> 
459
(
0.00132329
0.00145071
0.00147891
0.00155199
0.0016205
0.00168546
0.00175025
0.00180974
0.00184969
0.00186333
0.00184482
0.00179057
0.00169954
0.00157722
0.00143922
0.000598747
0.000723886
0.00081401
0.000811584
0.000784464
0.000748077
0.000701679
0.000655557
0.000613712
0.000576584
0.000543724
0.000514543
0.000488612
0.000465338
0.0004439
0.000423256
0.000401951
0.000388689
0.000356223
0.00180017
0.0045192
0.00437364
0.00510727
0.00582994
0.00654161
0.00714478
0.0076181
0.00803507
0.00836267
0.00855847
0.00857851
0.00835551
0.00771635
0.0059606
0.00147909
0.000852745
0.000636978
0.00133716
0.00186419
0.00224983
0.00245686
0.00244828
0.00195403
0.00168268
0.00148981
0.00134217
0.00122491
0.00112946
0.00104686
0.000969658
0.000894483
0.000827569
0.000767981
0.000912452
0.000472707
0.00219288
0.00617604
0.00546142
0.00684131
0.00754228
0.00806423
0.00846789
0.00880802
0.00916665
0.00952772
0.0098445
0.0100629
0.0101203
0.00991123
0.00913702
0.00692229
0.00151366
0.00123537
0.00180338
0.00233381
0.00281776
0.00314851
0.00306198
0.000996455
0.000879327
0.000785116
0.000709112
0.000647242
0.00059635
0.000554174
0.00051927
0.000491072
0.000530726
0.000613938
0.00103331
0.000552006
0.00256625
0.00785064
0.00551995
0.00724965
0.00785938
0.00808704
0.00825213
0.00845873
0.00876735
0.00915788
0.00956798
0.00993145
0.0101759
0.0102132
0.00997613
0.00911569
0.00623657
0.00178627
0.00222674
0.00289403
0.00355175
0.00407572
0.00438981
0.00409898
0.00112007
0.00101983
0.00094809
0.000892919
0.000845363
0.000801962
0.000760168
0.000716395
0.000665819
0.000624284
0.000642944
0.00120863
0.000610782
0.00294455
0.00997495
0.00610574
0.00703986
0.00780609
0.00788635
0.00785822
0.0080093
0.00829158
0.00870743
0.00917415
0.00960315
0.00988892
0.00996775
0.00983246
0.00944461
0.00857868
0.00712058
0.00661838
0.00646026
0.00640763
0.00636292
0.00627077
0.00599386
0.00502002
0.00455255
0.00427707
0.00406138
0.00383581
0.00351325
0.00309257
0.00259566
0.00205476
0.00152011
0.00112388
0.00118347
0.00079828
0.000744755
0.000889688
0.000995995
0.00334372
0.0122766
0.0083499
0.00717144
0.00772776
0.00786807
0.00780453
0.0079021
0.00812477
0.00850868
0.00900677
0.00948652
0.00979783
0.00984777
0.00964756
0.00929826
0.00891265
0.00855151
0.00834716
0.00816822
0.00794214
0.00767499
0.00737608
0.00702235
0.00654806
0.00614107
0.00579313
0.00547028
0.00514967
0.00480023
0.00435848
0.00380816
0.00315379
0.00244125
0.00182244
0.00135731
0.00106515
0.00094093
0.00136401
0.00104435
0.00369765
0.0138342
0.011484
0.00921335
0.00882707
0.00851157
0.00817599
0.00804186
0.00818518
0.00859573
0.00916328
0.00969929
0.0100127
0.00999712
0.00968875
0.00927471
0.00899967
0.00894875
0.00894474
0.00878584
0.00845162
0.00800966
0.00751281
0.00699462
0.0064883
0.00605177
0.00567548
0.00533897
0.00503533
0.00476795
0.00453233
0.00415288
0.00362235
0.00298983
0.00239995
0.00187152
0.00152612
0.00145716
0.00153076
0.00120028
0.00375597
0.0120533
0.0108939
0.0100781
0.00929277
0.00850952
0.00802829
0.00797359
0.00832993
0.00897786
0.00971209
0.0102872
0.0105092
0.010316
0.00982033
0.00931704
0.00910014
0.00912275
0.00899232
0.00857946
0.00797687
0.00728828
0.0066016
0.00598982
0.00549291
0.00510545
0.0047952
0.00454264
0.00434567
0.00421159
0.00414764
0.0041028
0.00378397
0.00336058
0.00300235
0.00285038
0.00304829
0.00371419
0.00468926
0.0018545
0.00364564
0.00430228
0.00474305
0.00485507
0.00511051
0.00567198
0.00655631
0.00770098
0.00895453
0.0101087
0.0109434
0.0112767
0.0110622
0.0104315
0.00969421
0.00923453
0.00893981
0.00861241
0.00807681
0.00733873
0.00651383
0.00572794
0.00507103
0.00457127
0.00420407
0.00392515
0.00369875
0.00350514
0.00333359
0.00317613
0.00302618
0.0028893
0.00278122
0.00271152
0.00270268
0.00273963
0.00273906
0.00262634
0.00244205
0.00170674
0.00173156
0.0043811
0.00790679
0.0101896
0.0116913
0.0126076
0.0129872
0.01291
0.0124654
0.0117463
0.0107394
0.00970101
0.00888819
0.00831157
0.00773362
0.00703242
0.00623557
0.00542914
0.00469909
0.00412013
0.00370218
0.00340805
0.00319468
0.00303114
0.00290046
0.00279553
0.00271491
0.00266086
0.00263938
0.00264768
0.00267269
0.00271103
0.00274995
0.00275317
0.00266584
0.00246854
0.00217472
0.0013763
0.00261598
0.00804045
0.0110259
0.0117937
0.0120232
0.0118435
0.0112856
0.0104864
0.00957814
0.00868362
0.00783941
0.00712095
0.00651669
0.00591409
0.00526634
0.00462392
0.00404418
0.003562
0.00318704
0.00290431
0.00270451
0.00256656
0.00247484
0.00242064
0.00239899
0.00240546
0.0024339
0.00247902
0.00254985
0.00264086
0.00274774
0.00286194
0.00296452
0.0030382
0.00302683
0.00303298
0.00274505
0.00139326
0.00231462
0.00245574
0.00255709
0.00273726
0.00262277
0.00251992
0.00243615
0.00231578
0.0021538
0.00195962
0.00174335
0.0015235
0.0013261
0.00116725
0.00104762
0.000959668
0.00089524
0.000848597
0.000816505
0.000797113
0.000788913
0.000790026
0.000797693
0.000810931
0.00082919
0.000852257
0.000880193
0.000913365
0.000952599
0.00099898
0.00105183
0.00111171
0.00117912
0.00125465
0.00133835
0.00144936
0.00148137
0.00144512
0.00134833
0.00124412
)
;

boundaryField
{
    floor
    {
        type            compressible::alphatWallFunction;
        Prt             0.85;
        value           nonuniform List<scalar> 
29
(
0.000202753
8.41545e-05
0.000102668
0.00011576
0.00011541
0.000111488
0.000106201
9.94134e-05
9.26123e-05
8.63914e-05
8.08281e-05
7.58673e-05
7.14309e-05
6.74621e-05
6.38773e-05
6.05552e-05
5.73369e-05
5.39944e-05
5.19026e-05
4.6742e-05
4.67414e-05
6.50153e-05
7.71221e-05
8.59553e-05
0.000202751
8.41535e-05
8.98561e-05
0.000174985
0.000249058
)
;
    }
    ceiling
    {
        type            compressible::alphatWallFunction;
        Prt             0.85;
        value           nonuniform List<scalar> 
43
(
0.000317589
0.000335624
0.000348511
0.000371445
0.000357048
0.00034403
0.000333381
0.000317998
0.000297153
0.000271937
0.000243526
0.000214242
0.000187544
0.000165731
0.000149081
0.000136699
0.000127545
0.000120869
0.000116251
0.00011345
0.000112263
0.000112424
0.000113534
0.000115447
0.000118079
0.000121395
0.000125396
0.000130128
0.000135699
0.00014225
0.000149672
0.00015803
0.000167375
0.000177776
0.000189218
0.000204272
0.000208588
0.0002037
0.000190579
0.000176335
0.00048438
0.000563986
0.000355732
)
;
    }
    sWall
    {
        type            compressible::alphatWallFunction;
        Prt             0.85;
        value           uniform 0.000316317;
    }
    nWall
    {
        type            compressible::alphatWallFunction;
        Prt             0.85;
        value           nonuniform List<scalar> 6(0.000141482 0.00014827 0.000169931 0.000194034 0.000196333 0.000175988);
    }
    sideWalls
    {
        type            empty;
    }
    glass1
    {
        type            compressible::alphatWallFunction;
        Prt             0.85;
        value           nonuniform List<scalar> 9(0.000182291 0.00024528 0.000295911 0.000343244 0.000390534 0.000439797 0.000483021 0.000490249 0.0004771);
    }
    glass2
    {
        type            compressible::alphatWallFunction;
        Prt             0.85;
        value           nonuniform List<scalar> 2(0.000256084 0.000236764);
    }
    sun
    {
        type            compressible::alphatWallFunction;
        Prt             0.85;
        value           nonuniform List<scalar> 
14
(
0.000187041
0.000204309
0.00020811
0.000217926
0.000227081
0.000235722
0.000244304
0.000252153
0.000257407
0.000259199
0.000256766
0.000249624
0.000237587
0.000221299
)
;
    }
    heatsource1
    {
        type            compressible::alphatWallFunction;
        Prt             0.85;
        value           nonuniform List<scalar> 3(0.000105869 0.000126778 0.000141856);
    }
    heatsource2
    {
        type            compressible::alphatWallFunction;
        Prt             0.85;
        value           nonuniform List<scalar> 4(0.000208307 0.00012149 0.000121488 0.000212955);
    }
    Table_master
    {
        type            compressible::alphatWallFunction;
        Prt             0.85;
        value           nonuniform List<scalar> 9(0.000141917 0.000125295 0.000111735 0.000100653 9.15258e-05 8.39383e-05 7.75896e-05 7.22901e-05 6.79761e-05);
    }
    Table_slave
    {
        type            compressible::alphatWallFunction;
        Prt             0.85;
        value           nonuniform List<scalar> 9(0.000159219 0.00014521 0.000135086 0.000127239 0.00012043 0.000114176 0.000108114 0.000101723 9.42792e-05);
    }
    inlet
    {
        type            fixedValue;
        value           uniform 1.94e-05;
    }
    outlet
    {
        type            zeroGradient;
    }
}


// ************************************************************************* //
