// -*- C++ -*-
// File generated by PyFoam - sorry for the ugliness

FoamFile
{
 version 2.0;
 format ascii;
 class volVectorField;
 location "1900";
 object U;
}

dimensions [ 0 1 -1 0 0 0 0 ];

internalField nonuniform List<vector> 459
(
  (0.0333522 0.0882018 0)
  (-0.171604 0.0264734 0)
  (-0.196774 0.017874 0)
  (-0.227496 0.0119141 0)
  (-0.24915 0.00539482 0)
  (-0.260781 -0.00142205 0)
  (-0.260948 -0.00854559 0)
  (-0.248979 -0.0159383 0)
  (-0.225806 -0.0228694 0)
  (-0.193449 -0.0282472 0)
  (-0.155323 -0.0312452 0)
  (-0.115177 -0.0315819 0)
  (-0.076553 -0.0296178 0)
  (-0.0445004 -0.0267934 0)
  (-0.0340718 -0.0248882 0)
  (-0.00280222 0.00864448 0)
  (-0.0277888 -0.0196466 0)
  (-0.00202972 -0.0295933 0)
  (0.0222688 -0.0220446 0)
  (0.0396856 -0.0148807 0)
  (0.0528621 -0.0095317 0)
  (0.0607759 -0.00567258 0)
  (0.0647398 -0.0036526 0)
  (0.0665063 -0.00278769 0)
  (0.0674005 -0.00237238 0)
  (0.0679564 -0.0021009 0)
  (0.0682468 -0.00187775 0)
  (0.0682027 -0.00160989 0)
  (0.0676064 -0.00111718 0)
  (0.0658656 -1.5045e-06 0)
  (0.0617221 0.00229115 0)
  (0.0538155 0.00469054 0)
  (0.0466189 0.00663601 0)
  (-0.0143563 0.0229437 0)
  (0.209679 0.180199 0)
  (-0.158671 0.0696468 0)
  (-0.157278 0.052947 0)
  (-0.188683 0.0403821 0)
  (-0.209907 0.0262928 0)
  (-0.221616 0.010748 0)
  (-0.222319 -0.00634794 0)
  (-0.211326 -0.0241155 0)
  (-0.190136 -0.0401283 0)
  (-0.161091 -0.0519658 0)
  (-0.127649 -0.0580692 0)
  (-0.0932482 -0.0581705 0)
  (-0.0610262 -0.0528772 0)
  (-0.0344194 -0.0437402 0)
  (-0.0177186 -0.0325834 0)
  (-0.00403599 -0.0145457 0)
  (-0.00436058 0.0172206 0)
  (0.0725784 0.0363513 0)
  (0.0318126 -0.0207668 0)
  (0.0395243 -0.0340235 0)
  (0.051601 -0.0293472 0)
  (0.0610677 -0.0204615 0)
  (0.0675128 -0.0121971 0)
  (0.0701637 -0.00505548 0)
  (0.0705742 -0.00109055 0)
  (0.0704681 0.000570514 0)
  (0.0705482 0.00131356 0)
  (0.0707283 0.00176525 0)
  (0.0708566 0.00214518 0)
  (0.070884 0.00263458 0)
  (0.0707555 0.00359628 0)
  (0.0699049 0.00599011 0)
  (0.0657444 0.0126373 0)
  (0.0552954 0.018158 0)
  (0.0505964 0.0217972 0)
  (-0.0554036 0.0494524 0)
  (0.370837 0.26912 0)
  (-0.173713 0.110317 0)
  (-0.117563 0.0851566 0)
  (-0.147411 0.0629751 0)
  (-0.165897 0.0398995 0)
  (-0.176228 0.0147955 0)
  (-0.175911 -0.0127622 0)
  (-0.164074 -0.0408706 0)
  (-0.143379 -0.0652482 0)
  (-0.116773 -0.0822537 0)
  (-0.0877638 -0.0900039 0)
  (-0.059037 -0.0888039 0)
  (-0.0326472 -0.0797555 0)
  (-0.0106844 -0.0646895 0)
  (0.00575443 -0.0441286 0)
  (0.0171349 -0.0185565 0)
  (0.023096 0.0182526 0)
  (0.120459 -0.037838 0)
  (0.0794592 -0.0450623 0)
  (0.0737922 -0.0427682 0)
  (0.0759074 -0.0351409 0)
  (0.0775433 -0.0255272 0)
  (0.0786381 -0.0172153 0)
  (0.0770077 -0.0137075 0)
  (0.0724379 -0.00960152 0)
  (0.069243 -0.00736507 0)
  (0.0678303 -0.00608061 0)
  (0.0672437 -0.00525593 0)
  (0.0669692 -0.0046765 0)
  (0.0670287 -0.00413208 0)
  (0.0679214 -0.00323737 0)
  (0.0709258 8.42175e-05 0)
  (0.0685826 0.0182077 0)
  (0.0538979 0.0307933 0)
  (0.0572207 0.0390027 0)
  (-0.0920418 0.0766127 0)
  (0.515611 0.340391 0)
  (-0.20664 0.146208 0)
  (-0.0764021 0.112181 0)
  (-0.103633 0.0817004 0)
  (-0.116324 0.0518153 0)
  (-0.122339 0.0185642 0)
  (-0.117315 -0.0193491 0)
  (-0.10235 -0.0577487 0)
  (-0.0817913 -0.0891689 0)
  (-0.058728 -0.109571 0)
  (-0.0361699 -0.117523 0)
  (-0.0152722 -0.114578 0)
  (0.00357756 -0.102047 0)
  (0.0192708 -0.0827413 0)
  (0.032882 -0.0588516 0)
  (0.0477874 -0.0316684 0)
  (0.0705099 -0.00174031 0)
  (0.103097 0.0124412 0)
  (0.109237 -0.0296514 0)
  (0.0937029 -0.0391432 0)
  (0.0843705 -0.0364895 0)
  (0.0798286 -0.0307745 0)
  (0.0767834 -0.0232981 0)
  (0.0752693 -0.0142085 0)
  (0.0773965 -0.00846267 0)
  (0.0825523 -0.00650894 0)
  (0.0867992 -0.0053682 0)
  (0.0895857 -0.00446266 0)
  (0.0911387 -0.00336105 0)
  (0.0908028 -0.00179503 0)
  (0.0875344 0.000433635 0)
  (0.0800912 0.00362436 0)
  (0.0654729 0.00838343 0)
  (0.053117 0.02981 0)
  (0.0404226 0.0473157 0)
  (0.0607478 0.0604909 0)
  (-0.134817 0.0999077 0)
  (0.639711 0.395458 0)
  (-0.24715 0.175405 0)
  (-0.0367064 0.127117 0)
  (-0.0579184 0.0917364 0)
  (-0.0620143 0.0577554 0)
  (-0.05969 0.0180086 0)
  (-0.0431181 -0.0299468 0)
  (-0.0238856 -0.0758839 0)
  (-0.00525868 -0.110157 0)
  (0.0113085 -0.130218 0)
  (0.0240032 -0.135497 0)
  (0.0340342 -0.129683 0)
  (0.0417738 -0.115147 0)
  (0.0481012 -0.0945378 0)
  (0.0542359 -0.0705078 0)
  (0.0620976 -0.0461634 0)
  (0.0744056 -0.0274652 0)
  (0.0853016 -0.0260744 0)
  (0.0864186 -0.0346084 0)
  (0.0793506 -0.0348273 0)
  (0.0707099 -0.0307003 0)
  (0.0640608 -0.0255863 0)
  (0.0593856 -0.0198793 0)
  (0.056969 -0.0136246 0)
  (0.0573642 -0.00776204 0)
  (0.0601503 -0.00495165 0)
  (0.0631709 -0.00379317 0)
  (0.0659645 -0.00270767 0)
  (0.068369 -0.000666525 0)
  (0.0698993 0.00279877 0)
  (0.0693298 0.00771338 0)
  (0.066146 0.0142218 0)
  (0.0596631 0.0230613 0)
  (0.0519534 0.0395012 0)
  (0.0403469 0.0591546 0)
  (0.0683432 0.0805789 0)
  (-0.0348103 0.112534 0)
  (0.0472318 0.026826 0)
  (-0.069254 -0.0379704 0)
  (-0.285957 -0.0615103 0)
  (0.728973 0.441122 0)
  (-0.286355 0.19461 0)
  (-0.00692539 0.121338 0)
  (-0.00967584 0.0896048 0)
  (-0.000759549 0.0544064 0)
  (0.0191274 0.00576527 0)
  (0.0489219 -0.0496553 0)
  (0.0686813 -0.093779 0)
  (0.0810407 -0.123478 0)
  (0.0866848 -0.138734 0)
  (0.086967 -0.140872 0)
  (0.0836779 -0.132473 0)
  (0.0783103 -0.116336 0)
  (0.0724433 -0.0953638 0)
  (0.0675276 -0.0723088 0)
  (0.0648396 -0.0501728 0)
  (0.0651222 -0.0330192 0)
  (0.0653038 -0.025869 0)
  (0.0614286 -0.0256166 0)
  (0.0536713 -0.0252083 0)
  (0.0451435 -0.0228045 0)
  (0.0382723 -0.0195252 0)
  (0.0335666 -0.0159105 0)
  (0.0312778 -0.0121175 0)
  (0.0314771 -0.00893237 0)
  (0.0336595 -0.00770956 0)
  (0.0367285 -0.0073902 0)
  (0.0402369 -0.00662884 0)
  (0.0439489 -0.00436978 0)
  (0.0476784 0.000222568 0)
  (0.0504911 0.0071256 0)
  (0.0516503 0.0159447 0)
  (0.0515052 0.0270162 0)
  (0.0516246 0.0422979 0)
  (0.0492153 0.0614335 0)
  (0.0765027 0.0862341 0)
  (0.0487514 0.105399 0)
  (0.0973768 0.0698449 0)
  (0.122168 0.0453162 0)
  (-0.138725 -0.0102556 0)
  (0.785712 0.48288 0)
  (-0.304177 0.179065 0)
  (0.0239945 0.0651629 0)
  (0.0576883 0.0551316 0)
  (0.08386 0.0295606 0)
  (0.127703 -0.0242051 0)
  (0.156371 -0.0725229 0)
  (0.170266 -0.10696 0)
  (0.171372 -0.127366 0)
  (0.16235 -0.135099 0)
  (0.146341 -0.131981 0)
  (0.126449 -0.120445 0)
  (0.105363 -0.103253 0)
  (0.0853215 -0.0830571 0)
  (0.0679268 -0.0620731 0)
  (0.0541621 -0.0426985 0)
  (0.0442668 -0.0278653 0)
  (0.036639 -0.0200012 0)
  (0.0289993 -0.0175975 0)
  (0.0208306 -0.0168238 0)
  (0.0132679 -0.0156265 0)
  (0.0073926 -0.0141169 0)
  (0.00351845 -0.0125722 0)
  (0.00176833 -0.0111206 0)
  (0.00207955 -0.0102305 0)
  (0.00394449 -0.0103847 0)
  (0.00666727 -0.0108681 0)
  (0.00998705 -0.0107169 0)
  (0.0139382 -0.00899713 0)
  (0.0186497 -0.00463594 0)
  (0.0253887 0.00325438 0)
  (0.0310395 0.0129563 0)
  (0.0365555 0.0241152 0)
  (0.0438587 0.0376535 0)
  (0.0511891 0.0532651 0)
  (0.0763392 0.0734594 0)
  (0.0885715 0.080828 0)
  (0.125308 0.0525332 0)
  (0.167905 0.0428482 0)
  (-0.0322731 0.0966441 0)
  (0.893637 0.482351 0)
  (-0.0563545 0.157465 0)
  (0.119419 -0.0235775 0)
  (0.207549 -0.0594653 0)
  (0.253267 -0.0726796 0)
  (0.278338 -0.0893151 0)
  (0.287309 -0.10475 0)
  (0.279592 -0.114567 0)
  (0.257357 -0.117611 0)
  (0.224853 -0.114084 0)
  (0.186788 -0.104819 0)
  (0.147275 -0.0910626 0)
  (0.109611 -0.0746415 0)
  (0.0761204 -0.0573475 0)
  (0.048034 -0.0404175 0)
  (0.0261005 -0.0255442 0)
  (0.0104316 -0.0150657 0)
  (-0.000480966 -0.0100172 0)
  (-0.00862105 -0.00898111 0)
  (-0.015413 -0.00925893 0)
  (-0.0210561 -0.00953416 0)
  (-0.0253512 -0.00972606 0)
  (-0.0282771 -0.00995899 0)
  (-0.0298632 -0.0103477 0)
  (-0.0302631 -0.0110784 0)
  (-0.0298688 -0.0122017 0)
  (-0.0290762 -0.0133477 0)
  (-0.0279818 -0.0140221 0)
  (-0.0263963 -0.0137114 0)
  (-0.0238671 -0.0118034 0)
  (-0.019224 -0.00749952 0)
  (-0.00864073 -0.000142417 0)
  (-0.000296395 0.00864738 0)
  (0.0109565 0.0172666 0)
  (0.0225682 0.0249794 0)
  (0.0439306 0.0337913 0)
  (0.0625845 0.0260337 0)
  (0.0815792 -0.00551515 0)
  (0.143253 0.044721 0)
  (-0.455324 0.221942 0)
  (1.04587 0.426878 0)
  (0.495426 0.278723 0)
  (0.514553 0.172937 0)
  (0.549658 0.0949648 0)
  (0.529784 0.0412184 0)
  (0.482194 -0.00142841 0)
  (0.427172 -0.0326783 0)
  (0.366993 -0.0517508 0)
  (0.302477 -0.0599184 0)
  (0.237003 -0.0596819 0)
  (0.174662 -0.0537385 0)
  (0.118376 -0.0441005 0)
  (0.0703982 -0.0329247 0)
  (0.0312483 -0.0218925 0)
  (0.000213134 -0.0118787 0)
  (-0.0210814 -0.00504506 0)
  (-0.0332841 -0.00215745 0)
  (-0.0408056 -0.0017229 0)
  (-0.0461995 -0.0026457 0)
  (-0.0507899 -0.00399508 0)
  (-0.0547984 -0.00532622 0)
  (-0.0582276 -0.00660859 0)
  (-0.0611263 -0.00787461 0)
  (-0.0636109 -0.00915259 0)
  (-0.0658981 -0.0104608 0)
  (-0.0683218 -0.0117131 0)
  (-0.071225 -0.0126266 0)
  (-0.0748964 -0.0127895 0)
  (-0.0796577 -0.01168 0)
  (-0.0860011 -0.00862631 0)
  (-0.0946267 -0.00282116 0)
  (-0.105152 0.00625107 0)
  (-0.116073 0.0181943 0)
  (-0.133364 0.0333392 0)
  (-0.160704 0.0514863 0)
  (-0.200498 0.0705585 0)
  (-0.25672 0.0852135 0)
  (-0.320092 0.0924729 0)
  (-0.391673 0.0930801 0)
  (-0.660312 0.0875529 0)
  (-0.181022 -0.0203988 0)
  (0.100441 -0.0351461 0)
  (0.177249 -0.0547617 0)
  (0.164436 -0.0473891 0)
  (0.145382 -0.0343713 0)
  (0.121463 -0.0225422 0)
  (0.0896843 -0.012449 0)
  (0.0540144 -0.00458193 0)
  (0.0192519 0.000805986 0)
  (-0.0135309 0.00431459 0)
  (-0.0373085 0.00549423 0)
  (-0.0546313 0.00545839 0)
  (-0.0658123 0.00438467 0)
  (-0.0718029 0.0022314 0)
  (-0.0752082 -0.000355287 0)
  (-0.0776409 -0.00301598 0)
  (-0.0799029 -0.0056885 0)
  (-0.0824443 -0.00811853 0)
  (-0.0853675 -0.0100056 0)
  (-0.0884389 -0.0114285 0)
  (-0.0916254 -0.012465 0)
  (-0.0950582 -0.0131665 0)
  (-0.0989089 -0.0135526 0)
  (-0.103342 -0.0135374 0)
  (-0.108438 -0.0128736 0)
  (-0.114134 -0.0111617 0)
  (-0.120169 -0.00789256 0)
  (-0.126065 -0.00250987 0)
  (-0.131084 0.00534365 0)
  (-0.134844 0.0160147 0)
  (-0.137824 0.0305083 0)
  (-0.14061 0.0492802 0)
  (-0.144333 0.0712741 0)
  (-0.149627 0.0918579 0)
  (-0.152982 0.0995587 0)
  (-0.135178 0.0723589 0)
  (-0.0821292 -0.0315056 0)
  (-0.28917 -0.225513 0)
  (0.0352006 0.198251 0)
  (0.0137128 0.0640597 0)
  (-0.032105 0.0120178 0)
  (-0.0555007 0.0111594 0)
  (-0.0735866 0.0171693 0)
  (-0.0869343 0.0216864 0)
  (-0.0959388 0.0254224 0)
  (-0.102754 0.0285636 0)
  (-0.107672 0.0305291 0)
  (-0.110958 0.031059 0)
  (-0.112405 0.0306389 0)
  (-0.112505 0.0304706 0)
  (-0.111495 0.030754 0)
  (-0.109946 0.031521 0)
  (-0.108483 0.0329266 0)
  (-0.107397 0.0347933 0)
  (-0.106838 0.036612 0)
  (-0.106854 0.0378004 0)
  (-0.107349 0.0377724 0)
  (-0.108341 0.036677 0)
  (-0.109789 0.0351606 0)
  (-0.111666 0.0333869 0)
  (-0.113936 0.0314412 0)
  (-0.116543 0.0294044 0)
  (-0.119376 0.027375 0)
  (-0.122249 0.0254601 0)
  (-0.124867 0.0237441 0)
  (-0.126675 0.0224536 0)
  (-0.126757 0.0230317 0)
  (-0.12379 0.0267915 0)
  (-0.116157 0.0349038 0)
  (-0.102696 0.048471 0)
  (-0.0837663 0.0672807 0)
  (-0.0606607 0.0863604 0)
  (-0.0364362 0.0972802 0)
  (0.00699206 0.0797667 0)
  (0.144645 0.00349998 0)
  (-0.207793 -0.138318 0)
  (-0.09235 -0.347031 0)
  (-0.447196 -0.138552 0)
  (-0.333879 0.0445187 0)
  (-0.291726 -0.0444529 0)
  (-0.250824 -0.0511312 0)
  (-0.239459 -0.0438431 0)
  (-0.231448 -0.0369007 0)
  (-0.222187 -0.0325621 0)
  (-0.210626 -0.0304435 0)
  (-0.197039 -0.0306669 0)
  (-0.182397 -0.0337822 0)
  (-0.16811 -0.0398074 0)
  (-0.155409 -0.0479832 0)
  (-0.144919 -0.057031 0)
  (-0.136728 -0.0663566 0)
  (-0.130667 -0.0756446 0)
  (-0.126342 -0.0844428 0)
  (-0.123292 -0.092249 0)
  (-0.12118 -0.098571 0)
  (-0.119834 -0.102948 0)
  (-0.119236 -0.105085 0)
  (-0.119391 -0.105112 0)
  (-0.120211 -0.103759 0)
  (-0.121513 -0.101255 0)
  (-0.123128 -0.0977616 0)
  (-0.124867 -0.0933492 0)
  (-0.126476 -0.0879916 0)
  (-0.127607 -0.0815475 0)
  (-0.127803 -0.0737299 0)
  (-0.12646 -0.0643158 0)
  (-0.122445 -0.053924 0)
  (-0.113593 -0.0423762 0)
  (-0.0969418 -0.0291497 0)
  (-0.0703701 -0.013261 0)
  (-0.0353017 0.00603317 0)
  (0.0240229 0.030842 0)
  (0.0746524 0.0316289 0)
  (0.123306 0.00983443 0)
  (0.176776 -0.0310808 0)
  (-0.178071 -0.099368 0)
)
;

boundaryField
{
  floor
  {
    type noSlip;
  }
  ceiling
  {
    type noSlip;
  }
  sWall
  {
    type noSlip;
  }
  nWall
  {
    type noSlip;
  }
  sideWalls
  {
    type empty;
  }
  glass1
  {
    type noSlip;
  }
  glass2
  {
    type noSlip;
  }
  sun
  {
    type noSlip;
  }
  heatsource1
  {
    type noSlip;
  }
  heatsource2
  {
    type noSlip;
  }
  Table_master
  {
    type noSlip;
  }
  Table_slave
  {
    type noSlip;
  }
  inlet
  {
    type fixedValue;
    value uniform (0.277164 -0.114805 0);
  }
  outlet
  {
    type zeroGradient;
  }
} 	// ************************************************************************* //

