/*--------------------------------*- C++ -*----------------------------------*\
  =========                 |
  \\      /  F ield         | OpenFOAM: The Open Source CFD Toolbox
   \\    /   O peration     | Website:  https://openfoam.org
    \\  /    A nd           | Version:  6
     \\/     M anipulation  |
\*---------------------------------------------------------------------------*/
FoamFile
{
    version     2.0;
    format      ascii;
    class       volScalarField;
    location    "2200";
    object      epsilon;
}
// * * * * * * * * * * * * * * * * * * * * * * * * * * * * * * * * * * * * * //

dimensions      [0 2 -3 0 0 0 0];

internalField   nonuniform List<scalar> 
459
(
0.000522902
0.000687283
0.00072837
0.000841894
0.000958547
0.00107878
0.00120851
0.00133568
0.00142537
0.00145593
0.00141138
0.00128861
0.00109954
0.000875625
0.000661063
4.83515e-05
8.5204e-05
0.000121423
0.000120786
0.000109263
9.48559e-05
7.82772e-05
6.38064e-05
5.23264e-05
4.33737e-05
3.63587e-05
3.08033e-05
2.63678e-05
2.27699e-05
1.9761e-05
1.71276e-05
1.46681e-05
1.32559e-05
1.01963e-05
0.00131727
0.00186071
0.00065086
0.000633373
0.000669462
0.00072702
0.000809656
0.000910226
0.000998504
0.00104674
0.00103595
0.000962917
0.000837455
0.000687166
0.000572418
0.000717504
0.000142984
5.78475e-05
0.000137118
0.000146503
0.000133965
0.00011441
9.59892e-05
8.66523e-05
7.01239e-05
5.55278e-05
4.39821e-05
3.50899e-05
2.82697e-05
2.30396e-05
1.90338e-05
1.60807e-05
1.42813e-05
1.35327e-05
3.50383e-05
2.37562e-05
0.00238406
0.00448791
0.000816251
0.000613998
0.000651847
0.000743716
0.000874988
0.00102687
0.00115312
0.00121947
0.00121158
0.00113423
0.000999631
0.00084104
0.000696609
0.000629773
0.000777065
0.00041776
0.000306442
0.000234212
0.000182384
0.000144336
0.000121851
0.000224065
0.000153871
0.000109443
8.05788e-05
6.12321e-05
4.78634e-05
3.83853e-05
3.15611e-05
2.66807e-05
2.0242e-05
1.70583e-05
6.67786e-05
3.78001e-05
0.00382631
0.00920654
0.00130665
0.000643934
0.000662711
0.000800205
0.00101303
0.00123803
0.00139345
0.00145678
0.00143075
0.00133005
0.00116315
0.000973498
0.000803558
0.000690075
0.000671885
0.00127447
0.000724691
0.000438006
0.000294294
0.000212479
0.000161904
0.0001386
0.00031871
0.000240491
0.000193165
0.000161323
0.000136859
0.000116828
9.94683e-05
8.32121e-05
6.67475e-05
3.92057e-05
2.61676e-05
0.000114529
5.11932e-05
0.00578865
0.0162389
0.00259252
0.00082117
0.000741111
0.000945042
0.00132965
0.00162326
0.00176472
0.0017868
0.00171694
0.00156895
0.00135661
0.00111144
0.000872916
0.000675398
0.000539631
0.000485084
0.000395752
0.000312301
0.000244849
0.000192845
0.000153983
0.000128348
0.000123805
0.000114958
0.0001061
9.72543e-05
8.79281e-05
7.82985e-05
6.89249e-05
6.01545e-05
5.20937e-05
4.11767e-05
3.17673e-05
8.06092e-05
5.75157e-05
9.26741e-05
0.000158076
0.000221916
0.00848832
0.0239329
0.00578999
0.00169509
0.00126906
0.00162723
0.00213451
0.00232405
0.00233931
0.00226343
0.00212026
0.0019032
0.00161565
0.00128708
0.000965229
0.000696836
0.000508515
0.000398496
0.00032777
0.000269705
0.000218317
0.000175899
0.000143745
0.000122454
0.000112328
0.000107937
0.000105047
0.000101309
9.53981e-05
8.63355e-05
7.48763e-05
6.34561e-05
5.32008e-05
4.40906e-05
3.8739e-05
5.76309e-05
5.92331e-05
7.1471e-05
0.000295282
0.00025595
0.0114942
0.0284586
0.011679
0.00538101
0.00402119
0.00401204
0.00379678
0.00350186
0.0032152
0.00295353
0.00268074
0.00234907
0.00194447
0.0014989
0.00107273
0.0007286
0.000496953
0.000364257
0.000288384
0.000234055
0.000189366
0.000154701
0.000130911
0.000117722
0.000113781
0.000115366
0.000118661
0.000121647
0.000122866
0.000120248
0.000109401
9.60606e-05
8.31339e-05
7.21488e-05
6.83957e-05
8.00678e-05
0.000104659
0.000177265
0.000416962
0.000391068
0.0120739
0.0297915
0.0171798
0.0122895
0.00966117
0.00753017
0.00600319
0.00499023
0.00433214
0.00386069
0.00342267
0.00291397
0.00232114
0.0016998
0.00113175
0.00070427
0.000442739
0.000304415
0.000233371
0.000187905
0.000154718
0.000132366
0.000120007
0.000116253
0.0001193
0.000126979
0.000137689
0.000151004
0.000166989
0.000185388
0.000204602
0.000212811
0.000223374
0.000247025
0.000296932
0.000461272
0.000897823
0.00181877
0.00537463
0.00144016
0.0110782
0.0181503
0.0145826
0.0111725
0.00878305
0.00728704
0.00639273
0.00585833
0.00546658
0.00502119
0.00438694
0.0035328
0.00258959
0.00170292
0.000965142
0.000520179
0.000321447
0.000227302
0.000176761
0.00014514
0.000124894
0.000113718
0.000110038
0.000112376
0.00011951
0.000130706
0.000146013
0.00016638
0.000193565
0.000230153
0.000279685
0.000347488
0.000441594
0.00058675
0.00080007
0.00108741
0.0014098
0.00167788
0.00187193
0.00112307
0.00372361
0.00657137
0.00842879
0.00891587
0.00890278
0.00843234
0.00743883
0.00603575
0.00443394
0.00278241
0.00167376
0.000969312
0.000550434
0.000333162
0.000228713
0.000175594
0.000145295
0.000126149
0.000114159
0.000107911
0.000106407
0.000108728
0.000114324
0.000123092
0.000135429
0.000152315
0.000175489
0.000207792
0.000253691
0.000319164
0.000411319
0.000539282
0.000705324
0.000889126
0.00103389
0.00106728
0.000935956
0.000587628
0.00371678
0.00849409
0.00848371
0.00702981
0.00608095
0.00509357
0.00401401
0.00295125
0.0020067
0.00125158
0.00076094
0.000472084
0.0003141
0.000232715
0.000190573
0.000166471
0.000150538
0.000138857
0.000130045
0.000123827
0.00012051
0.00012012
0.000122811
0.000129003
0.000139419
0.000155134
0.000177731
0.00020953
0.000253861
0.000315339
0.000400149
0.000514412
0.000658409
0.000822318
0.000944225
0.00105125
0.000804299
0.00060968
0.00267205
0.00318886
0.00360022
0.00451827
0.00400545
0.00356388
0.0032245
0.00277119
0.00222927
0.00167815
0.00118069
0.000787868
0.000520606
0.000356424
0.000258932
0.000199947
0.000162849
0.000138892
0.00012366
0.000114828
0.000111005
0.000111195
0.000114225
0.00011982
0.000127964
0.000138859
0.000152926
0.000170882
0.000193917
0.000223737
0.000261316
0.000308772
0.000368736
0.000444656
0.000540204
0.000686872
0.000733329
0.000680484
0.000552386
0.000433783
)
;

boundaryField
{
    floor
    {
        Cmu             0.09;
        kappa           0.41;
        E               9.8;
        type            epsilonWallFunction;
        value           nonuniform List<scalar> 
29
(
0.000661063
4.83515e-05
8.5204e-05
0.000121423
0.000120786
0.000109263
9.48559e-05
7.82772e-05
6.38064e-05
5.23264e-05
4.33737e-05
3.63587e-05
3.08033e-05
2.63678e-05
2.27699e-05
1.9761e-05
1.71276e-05
1.46681e-05
1.32559e-05
1.01963e-05
1.01963e-05
2.37562e-05
3.78001e-05
5.11932e-05
0.000661063
4.83515e-05
5.78475e-05
0.00041776
0.00127447
)
;
    }
    ceiling
    {
        Cmu             0.09;
        kappa           0.41;
        E               9.8;
        type            epsilonWallFunction;
        value           nonuniform List<scalar> 
43
(
0.00267205
0.00318886
0.00360022
0.00451827
0.00400545
0.00356388
0.0032245
0.00277119
0.00222927
0.00167815
0.00118069
0.000787868
0.000520606
0.000356424
0.000258932
0.000199947
0.000162849
0.000138892
0.00012366
0.000114828
0.000111005
0.000111195
0.000114225
0.00011982
0.000127964
0.000138859
0.000152926
0.000170882
0.000193917
0.000223737
0.000261316
0.000308772
0.000368736
0.000444656
0.000540204
0.000686872
0.000733329
0.000680484
0.000552386
0.000433783
0.0110782
0.0181503
0.00371678
)
;
    }
    sWall
    {
        Cmu             0.09;
        kappa           0.41;
        E               9.8;
        type            epsilonWallFunction;
        value           uniform 0.00267205;
    }
    nWall
    {
        Cmu             0.09;
        kappa           0.41;
        E               9.8;
        type            epsilonWallFunction;
        value           nonuniform List<scalar> 6(0.000221916 0.00025595 0.000391068 0.000587628 0.00060968 0.000433783);
    }
    sideWalls
    {
        type            empty;
    }
    glass1
    {
        Cmu             0.09;
        kappa           0.41;
        E               9.8;
        type            epsilonWallFunction;
        value           nonuniform List<scalar> 9(0.000522902 0.00131727 0.00238406 0.00382631 0.00578865 0.00848832 0.0114942 0.0120739 0.0110782);
    }
    glass2
    {
        Cmu             0.09;
        kappa           0.41;
        E               9.8;
        type            epsilonWallFunction;
        value           nonuniform List<scalar> 2(0.00144016 0.00112307);
    }
    sun
    {
        Cmu             0.09;
        kappa           0.41;
        E               9.8;
        type            epsilonWallFunction;
        value           nonuniform List<scalar> 
14
(
0.000522902
0.000687283
0.00072837
0.000841894
0.000958547
0.00107878
0.00120851
0.00133568
0.00142537
0.00145593
0.00141138
0.00128861
0.00109954
0.000875625
)
;
    }
    heatsource1
    {
        Cmu             0.09;
        kappa           0.41;
        E               9.8;
        type            epsilonWallFunction;
        value           nonuniform List<scalar> 3(9.26741e-05 0.000158076 0.000221916);
    }
    heatsource2
    {
        Cmu             0.09;
        kappa           0.41;
        E               9.8;
        type            epsilonWallFunction;
        value           nonuniform List<scalar> 4(0.000717504 0.000142984 0.000142984 0.000777065);
    }
    Table_master
    {
        Cmu             0.09;
        kappa           0.41;
        E               9.8;
        type            epsilonWallFunction;
        value           nonuniform List<scalar> 9(0.000224065 0.000153871 0.000109443 8.05788e-05 6.12321e-05 4.78634e-05 3.83853e-05 3.15611e-05 2.66807e-05);
    }
    Table_slave
    {
        Cmu             0.09;
        kappa           0.41;
        E               9.8;
        type            epsilonWallFunction;
        value           nonuniform List<scalar> 9(0.00031871 0.000240491 0.000193165 0.000161323 0.000136859 0.000116828 9.94683e-05 8.32121e-05 6.67475e-05);
    }
    inlet
    {
        type            turbulentMixingLengthDissipationRateInlet;
        mixingLength    0.01;
        phi             phi;
        k               k;
        value           uniform 0.000101881;
    }
    outlet
    {
        type            zeroGradient;
    }
}


// ************************************************************************* //
