/*--------------------------------*- C++ -*----------------------------------*\
  =========                 |
  \\      /  F ield         | OpenFOAM: The Open Source CFD Toolbox
   \\    /   O peration     | Website:  https://openfoam.org
    \\  /    A nd           | Version:  6
     \\/     M anipulation  |
\*---------------------------------------------------------------------------*/
FoamFile
{
    version     2.0;
    format      ascii;
    class       volScalarField;
    location    "60";
    object      alphat;
}
// * * * * * * * * * * * * * * * * * * * * * * * * * * * * * * * * * * * * * //

dimensions      [1 -1 -1 0 0 0 0];

internalField   nonuniform List<scalar> 
459
(
0.00153635
0.00169448
0.00169765
0.00164996
0.00153172
0.00138785
0.00127233
0.00119
0.00113082
0.00108622
0.00105232
0.00102748
0.0010105
0.00099993
0.000989605
0.000673276
0.000882476
0.000982959
0.00102542
0.00103122
0.000995744
0.000922626
0.000850965
0.000788793
0.000733347
0.000683133
0.000637137
0.000594529
0.000554542
0.000516377
0.000479213
0.000442618
0.000421235
0.000386815
0.0020956
0.00674525
0.00791418
0.00857985
0.00817204
0.00720143
0.00621436
0.00544136
0.00496675
0.00463564
0.00429365
0.00383571
0.00328923
0.00265068
0.00188021
0.00108159
0.000765812
0.000831775
0.00324228
0.00451867
0.00499609
0.00480019
0.00404797
0.00282058
0.00242494
0.0021191
0.00186054
0.00163462
0.00143743
0.00126426
0.00110934
0.000967991
0.00085219
0.000774019
0.000972363
0.000512395
0.00232943
0.00782528
0.0090096
0.0111877
0.0115739
0.0109934
0.00991691
0.00848963
0.00722
0.00640828
0.00596299
0.00540288
0.00457655
0.00362422
0.00266903
0.00184576
0.00120749
0.00128397
0.00524432
0.0060822
0.00597465
0.00535028
0.0038509
0.00104216
0.000847863
0.000726982
0.000648624
0.000592804
0.000549083
0.000512885
0.000482645
0.000459724
0.000546032
0.000660309
0.00123991
0.000619958
0.00236344
0.00348654
0.00416047
0.00549286
0.00741828
0.00901359
0.00988668
0.0100613
0.00958615
0.0084316
0.00752404
0.00701706
0.00624508
0.00511342
0.00384836
0.00268992
0.00186593
0.001496
0.0041699
0.00576354
0.00577578
0.00528066
0.00464388
0.00325035
0.00105252
0.000987089
0.000965184
0.000955381
0.000948249
0.000936264
0.00091159
0.000876211
0.000835662
0.000843529
0.000879699
0.00161663
0.000727292
0.00388742
0.0044584
0.00442128
0.00446233
0.00508371
0.00629687
0.0077034
0.00888701
0.00953535
0.00945369
0.00896728
0.00855472
0.00825538
0.00766459
0.00685681
0.00600409
0.00529064
0.00490775
0.00507455
0.00496986
0.00460352
0.00432956
0.00435217
0.00457248
0.00462308
0.00474854
0.00477345
0.00477831
0.00474744
0.00465459
0.0044638
0.00403504
0.00337995
0.00269385
0.00209993
0.00184466
0.00127206
0.000873316
0.00099879
0.00114742
0.00438945
0.00559946
0.00543162
0.00504057
0.00506564
0.00570107
0.00680739
0.00803162
0.00896628
0.00934073
0.00925302
0.0092766
0.00933611
0.00913146
0.00859353
0.00780931
0.00685331
0.00585085
0.00496718
0.00424157
0.00375749
0.00361695
0.00388935
0.00450244
0.00513471
0.00551131
0.00571437
0.00580767
0.00582734
0.00577361
0.00564611
0.00541838
0.00494151
0.00424019
0.00345635
0.00259253
0.00199119
0.00160333
0.00206312
0.00124028
0.00466853
0.00648706
0.00642703
0.00540555
0.00522306
0.00562738
0.00654203
0.00766227
0.00859011
0.00905313
0.00908931
0.00908021
0.00938957
0.00967997
0.00948772
0.00891029
0.00797328
0.00677316
0.00549877
0.00437607
0.00357233
0.00320731
0.00337374
0.00402715
0.00481112
0.0052806
0.0055322
0.00566813
0.00572088
0.0057046
0.00564668
0.00557779
0.00546266
0.00503736
0.00439426
0.00365028
0.00306853
0.00284073
0.0027254
0.00152968
0.00500062
0.00639607
0.00667003
0.00566483
0.00554714
0.00585476
0.00667525
0.00765851
0.00847388
0.00888449
0.00891538
0.00883465
0.00895038
0.00930496
0.00956751
0.00940266
0.00876978
0.00776395
0.00650441
0.005163
0.00392176
0.00308149
0.00290411
0.00345259
0.00435245
0.00491185
0.00516102
0.00526404
0.00528372
0.00525663
0.00523224
0.0052669
0.00538866
0.00542447
0.00512834
0.00498424
0.00518425
0.00552689
0.00605007
0.0020872
0.00545891
0.00637791
0.0086424
0.00607633
0.00611501
0.00663132
0.00715528
0.0079417
0.00865044
0.00894202
0.00890377
0.00872946
0.00863921
0.0087356
0.00895187
0.00900102
0.0087339
0.00812457
0.00721866
0.00606636
0.00461157
0.00325491
0.00253337
0.00284637
0.00383077
0.00456593
0.00485226
0.00490253
0.00482006
0.00466067
0.00447867
0.00431297
0.00416754
0.00404908
0.00394705
0.00384175
0.00364295
0.00331696
0.00298968
0.00190685
0.0119704
0.00660437
0.00635682
0.00762505
0.00796423
0.00849123
0.00900006
0.00913496
0.00893887
0.00860603
0.00829002
0.00807699
0.00797601
0.00790137
0.00772279
0.00737913
0.00684837
0.00611725
0.00512241
0.00367233
0.00227066
0.00224083
0.00317752
0.00412872
0.00457777
0.00468145
0.00459487
0.00440619
0.00419346
0.00402766
0.00393936
0.00388461
0.00380233
0.00363596
0.00332265
0.00286493
0.00234883
0.00150386
0.0043904
0.00442107
0.00684048
0.00757575
0.00798908
0.0083391
0.00855191
0.00840657
0.00795799
0.00742904
0.00691596
0.00647535
0.00612013
0.00582937
0.00554038
0.00525592
0.00495234
0.00458145
0.00404065
0.00314661
0.00201166
0.00165434
0.00235811
0.00323062
0.00368526
0.00389813
0.00397415
0.00397767
0.0039387
0.00391497
0.00394668
0.00400246
0.00403186
0.0039885
0.00383136
0.00359018
0.00301522
0.00152728
0.0022216
0.0025387
0.00282928
0.00200999
0.00210849
0.00224234
0.00231624
0.00232276
0.00225799
0.00211146
0.00198438
0.00186456
0.00175421
0.00165427
0.00156443
0.0014855
0.00141822
0.00135909
0.00130545
0.00125435
0.00120106
0.00113887
0.0010689
0.00101073
0.00104796
0.00109048
0.00112066
0.00114875
0.00117925
0.00121692
0.00126735
0.00133115
0.00140625
0.00149212
0.00158512
0.00168819
0.00172849
0.00167994
0.00155425
0.00142787
)
;

boundaryField
{
    floor
    {
        type            compressible::alphatWallFunction;
        Prt             0.85;
        value           nonuniform List<scalar> 
29
(
0.000140784
9.51788e-05
0.000125545
0.000139822
0.000145798
0.000146612
0.000141623
0.000131276
0.000121041
0.000112077
0.000104012
9.6645e-05
8.98387e-05
8.34797e-05
7.74604e-05
7.16646e-05
6.59692e-05
6.03075e-05
5.6976e-05
5.15703e-05
5.15696e-05
7.10737e-05
8.72958e-05
0.000103142
0.000140783
9.51777e-05
0.000118321
0.000181636
0.000210434
)
;
    }
    ceiling
    {
        type            compressible::alphatWallFunction;
        Prt             0.85;
        value           nonuniform List<scalar> 
43
(
0.000305925
0.00034647
0.000383157
0.000278531
0.000291325
0.000308608
0.000318102
0.000318936
0.000310616
0.000291705
0.000275189
0.000259512
0.000244977
0.000231725
0.000219738
0.000209143
0.000200061
0.00019204
0.000184729
0.00017773
0.000170393
0.00016178
0.000152028
0.000143888
0.000149157
0.000155063
0.000159253
0.000163146
0.000167366
0.000172561
0.000179488
0.000188207
0.000198409
0.00021
0.000222468
0.000236188
0.000241536
0.0002351
0.000218335
0.00020133
0.000701334
0.000808428
0.000574479
)
;
    }
    sWall
    {
        type            compressible::alphatWallFunction;
        Prt             0.85;
        value           uniform 0.000304808;
    }
    nWall
    {
        type            compressible::alphatWallFunction;
        Prt             0.85;
        value           nonuniform List<scalar> 6(0.000162573 0.000175383 0.00021465 0.000211196 0.000214339 0.000200953);
    }
    sideWalls
    {
        type            empty;
    }
    glass1
    {
        type            compressible::alphatWallFunction;
        Prt             0.85;
        value           nonuniform List<scalar> 9(0.000210431 0.000283171 0.000313106 0.000317615 0.000505789 0.000565961 0.000599026 0.000638131 0.000691767);
    }
    glass2
    {
        type            compressible::alphatWallFunction;
        Prt             0.85;
        value           nonuniform List<scalar> 2(0.000285923 0.000262646);
    }
    sun
    {
        type            compressible::alphatWallFunction;
        Prt             0.85;
        value           nonuniform List<scalar> 
14
(
0.000215817
0.000236886
0.000237301
0.000230965
0.00021517
0.000195775
0.000180034
0.000168716
0.000160525
0.000154321
0.000149586
0.000146105
0.000143721
0.000142235
)
;
    }
    heatsource1
    {
        type            compressible::alphatWallFunction;
        Prt             0.85;
        value           nonuniform List<scalar> 3(0.000124456 0.000142256 0.000163028);
    }
    heatsource2
    {
        type            compressible::alphatWallFunction;
        Prt             0.85;
        value           nonuniform List<scalar> 4(0.000153897 0.000108941 0.00010894 0.000171379);
    }
    Table_master
    {
        type            compressible::alphatWallFunction;
        Prt             0.85;
        value           nonuniform List<scalar> 9(0.000148387 0.000120826 0.0001033 9.17525e-05 8.34233e-05 7.68323e-05 7.13262e-05 6.6689e-05 6.31495e-05);
    }
    Table_slave
    {
        type            compressible::alphatWallFunction;
        Prt             0.85;
        value           nonuniform List<scalar> 9(0.000149785 0.000140597 0.000137508 0.000136125 0.000135119 0.000133424 0.000129921 0.000124876 0.000119062);
    }
    inlet
    {
        type            fixedValue;
        value           uniform 1.94e-05;
    }
    outlet
    {
        type            zeroGradient;
    }
}


// ************************************************************************* //
