/*--------------------------------*- C++ -*----------------------------------*\
  =========                 |
  \\      /  F ield         | OpenFOAM: The Open Source CFD Toolbox
   \\    /   O peration     | Website:  https://openfoam.org
    \\  /    A nd           | Version:  6
     \\/     M anipulation  |
\*---------------------------------------------------------------------------*/
FoamFile
{
    version     2.0;
    format      ascii;
    class       volScalarField;
    location    "60";
    object      epsilon;
}
// * * * * * * * * * * * * * * * * * * * * * * * * * * * * * * * * * * * * * //

dimensions      [0 2 -3 0 0 0 0];

internalField   nonuniform List<scalar> 
459
(
0.000810877
0.001085
0.0010907
0.00100107
0.00080072
0.000595611
0.000458899
0.000375436
0.000322149
0.000285509
0.000259603
0.000241649
0.000229869
0.000222738
0.00021594
6.78991e-05
0.0001529
0.000211342
0.000239923
0.000244013
0.000219677
0.000174744
0.0001371
0.000109187
8.77394e-05
7.09202e-05
5.7536e-05
4.67457e-05
3.79315e-05
3.0624e-05
2.44741e-05
1.92835e-05
1.66255e-05
1.2883e-05
0.00206322
0.00259812
0.00264051
0.00294421
0.00237117
0.00149259
0.000850044
0.000520655
0.000343602
0.000249194
0.000200946
0.000184534
0.000186763
0.000198175
0.000216455
0.000281968
9.99468e-05
0.000128271
0.00020582
0.000170653
0.000169241
0.000160514
0.000147113
0.000133806
0.000104436
8.3885e-05
6.73203e-05
5.36397e-05
4.25208e-05
3.35717e-05
2.6411e-05
2.0795e-05
1.69236e-05
1.51326e-05
4.56244e-05
2.99548e-05
0.00284254
0.00439154
0.00600615
0.00856109
0.00787485
0.00547325
0.00326323
0.00180443
0.000924911
0.000509977
0.000303867
0.000225694
0.000208265
0.000220211
0.0002498
0.000300684
0.000392605
0.000471374
0.000311371
0.000218531
0.000183188
0.000156729
0.000147184
0.000252172
0.000135751
8.55402e-05
6.07373e-05
4.63582e-05
3.68341e-05
3.0016e-05
2.50113e-05
2.16128e-05
1.82659e-05
1.85549e-05
0.000110306
5.3059e-05
0.00297993
0.00437806
0.00449811
0.00506019
0.0058691
0.00603711
0.00548319
0.00448178
0.00297674
0.00132132
0.000585537
0.000329249
0.000249198
0.000238223
0.000264519
0.000332812
0.000479414
0.000746584
0.000398366
0.00024348
0.000189501
0.000153872
0.000133317
0.000140911
0.00025954
0.000214084
0.00020016
0.000194143
0.000189851
0.000182766
0.000168712
0.000149839
0.000129992
8.30977e-05
5.63339e-05
0.000211842
8.56735e-05
0.0133168
0.0116947
0.00901893
0.00695156
0.00579789
0.00530007
0.00495987
0.00445843
0.0036325
0.00258193
0.00121732
0.000541423
0.000329081
0.000259874
0.000235143
0.000224137
0.000220009
0.000213708
0.000177917
0.000152674
0.00013787
0.000128425
0.000125833
0.000130517
0.000140536
0.000131613
0.000127933
0.000128878
0.00013063
0.000129809
0.000123703
0.000112959
0.000103182
8.92008e-05
7.51679e-05
0.000141558
0.000125032
0.000148365
0.000222001
0.000336699
0.0191524
0.0169953
0.0113095
0.0076367
0.00572932
0.00481883
0.00434561
0.00392883
0.00332643
0.0025222
0.00160449
0.000815134
0.000454006
0.000326969
0.0002782
0.000246421
0.000211791
0.000174311
0.000143859
0.000127107
0.000121339
0.000122708
0.000130574
0.000141237
0.000142067
0.000135175
0.000136036
0.000143387
0.0001533
0.000160926
0.000161213
0.000149599
0.000130394
0.000112155
9.97391e-05
0.000115226
0.000127121
0.000137048
0.000402704
0.000425098
0.0230055
0.0236049
0.0149265
0.00725477
0.00491561
0.00404399
0.00365168
0.00333372
0.00286728
0.00222915
0.00152056
0.000929721
0.000570253
0.000402274
0.000339377
0.000304208
0.000266065
0.000219865
0.000177155
0.000148706
0.000134305
0.000130062
0.000137919
0.0001543
0.00015805
0.000150975
0.000153818
0.000167151
0.000188071
0.00021106
0.000230268
0.00023792
0.000217933
0.0001972
0.000189431
0.000211278
0.000272817
0.000398549
0.000755656
0.000797571
0.0282216
0.033214
0.0269222
0.00619715
0.00383142
0.00329574
0.00304245
0.00280835
0.00243135
0.00191661
0.00136097
0.000901822
0.000609649
0.000460006
0.000390026
0.000357259
0.000328842
0.000289464
0.000244523
0.000205266
0.00017453
0.000151901
0.000149227
0.000169351
0.000183702
0.000180042
0.000184398
0.000202186
0.000232323
0.000273661
0.000325839
0.000387414
0.000451381
0.000495498
0.000614326
0.000948543
0.00169261
0.0028061
0.00706953
0.00203033
0.0366566
0.0582626
0.0666232
0.014921
0.00357247
0.00294366
0.00265473
0.00243894
0.0020976
0.00166678
0.00122529
0.000865267
0.000624948
0.000487604
0.000418585
0.000387697
0.00036936
0.000347475
0.000318095
0.000284545
0.000244608
0.000195149
0.000167555
0.000186691
0.000217514
0.000225304
0.000233001
0.000251066
0.000283521
0.00033482
0.000412543
0.00052611
0.000683453
0.000894778
0.00118495
0.00157667
0.00199819
0.00233196
0.00259532
0.00155133
0.140872
0.0300461
0.00396409
0.00271221
0.00242424
0.00222542
0.00191773
0.00152076
0.00115551
0.00086501
0.000663224
0.000535872
0.000462042
0.000423021
0.000402625
0.000387915
0.000372311
0.000353762
0.000328388
0.000263163
0.000192971
0.000205234
0.00025608
0.000286988
0.000309881
0.000328332
0.000349844
0.000381004
0.000430342
0.000510666
0.00063527
0.00081067
0.00103019
0.00126094
0.00141542
0.00139543
0.00118395
0.000760406
0.0190092
0.00347371
0.00223711
0.00218872
0.00223978
0.00216256
0.00192222
0.0015418
0.0012202
0.000971444
0.00078882
0.000659911
0.000569611
0.000505561
0.000460485
0.00042737
0.000400669
0.000374667
0.000339233
0.000276432
0.000209462
0.00021917
0.00029522
0.000346737
0.000369924
0.000391617
0.000411081
0.000437197
0.000479631
0.00054987
0.000659292
0.00081486
0.00101196
0.00122705
0.00138914
0.00148593
0.000976572
0.000796384
0.00246794
0.0036796
0.0050933
0.00182826
0.00211066
0.00253877
0.00279783
0.0028207
0.00258996
0.00211655
0.00175635
0.00145668
0.00121283
0.00101697
0.00086001
0.000736204
0.000640545
0.000563644
0.000499429
0.000442947
0.000388726
0.000331254
0.00027373
0.000231308
0.000257563
0.000289858
0.000314503
0.000338705
0.000366394
0.000402632
0.000454789
0.000526983
0.000621288
0.000742185
0.000889776
0.00107487
0.00115395
0.00105952
0.000839025
0.000650782
)
;

boundaryField
{
    floor
    {
        Cmu             0.09;
        kappa           0.41;
        E               9.8;
        type            epsilonWallFunction;
        value           nonuniform List<scalar> 
29
(
0.00021594
6.78991e-05
0.0001529
0.000211342
0.000239923
0.000244013
0.000219677
0.000174744
0.0001371
0.000109187
8.77394e-05
7.09202e-05
5.7536e-05
4.67457e-05
3.79315e-05
3.0624e-05
2.44741e-05
1.92835e-05
1.66255e-05
1.2883e-05
1.2883e-05
2.99548e-05
5.3059e-05
8.56735e-05
0.00021594
6.78991e-05
0.000128271
0.000471374
0.000746584
)
;
    }
    ceiling
    {
        Cmu             0.09;
        kappa           0.41;
        E               9.8;
        type            epsilonWallFunction;
        value           nonuniform List<scalar> 
43
(
0.00246794
0.0036796
0.0050933
0.00182826
0.00211066
0.00253877
0.00279783
0.0028207
0.00258996
0.00211655
0.00175635
0.00145668
0.00121283
0.00101697
0.00086001
0.000736204
0.000640545
0.000563644
0.000499429
0.000442947
0.000388726
0.000331254
0.00027373
0.000231308
0.000257563
0.000289858
0.000314503
0.000338705
0.000366394
0.000402632
0.000454789
0.000526983
0.000621288
0.000742185
0.000889776
0.00107487
0.00115395
0.00105952
0.000839025
0.000650782
0.0366566
0.0582626
0.0190092
)
;
    }
    sWall
    {
        Cmu             0.09;
        kappa           0.41;
        E               9.8;
        type            epsilonWallFunction;
        value           uniform 0.00246794;
    }
    nWall
    {
        Cmu             0.09;
        kappa           0.41;
        E               9.8;
        type            epsilonWallFunction;
        value           nonuniform List<scalar> 6(0.000336699 0.000425098 0.000797571 0.000760406 0.000796384 0.000650782);
    }
    sideWalls
    {
        type            empty;
    }
    glass1
    {
        Cmu             0.09;
        kappa           0.41;
        E               9.8;
        type            epsilonWallFunction;
        value           nonuniform List<scalar> 9(0.000810877 0.00206322 0.00284254 0.00297993 0.0133168 0.0191524 0.0230055 0.0282216 0.0366566);
    }
    glass2
    {
        Cmu             0.09;
        kappa           0.41;
        E               9.8;
        type            epsilonWallFunction;
        value           nonuniform List<scalar> 2(0.00203033 0.00155133);
    }
    sun
    {
        Cmu             0.09;
        kappa           0.41;
        E               9.8;
        type            epsilonWallFunction;
        value           nonuniform List<scalar> 
14
(
0.000810877
0.001085
0.0010907
0.00100107
0.00080072
0.000595611
0.000458899
0.000375436
0.000322149
0.000285509
0.000259603
0.000241649
0.000229869
0.000222738
)
;
    }
    heatsource1
    {
        Cmu             0.09;
        kappa           0.41;
        E               9.8;
        type            epsilonWallFunction;
        value           nonuniform List<scalar> 3(0.000148365 0.000222001 0.000336699);
    }
    heatsource2
    {
        Cmu             0.09;
        kappa           0.41;
        E               9.8;
        type            epsilonWallFunction;
        value           nonuniform List<scalar> 4(0.000281968 9.99468e-05 9.99468e-05 0.000392605);
    }
    Table_master
    {
        Cmu             0.09;
        kappa           0.41;
        E               9.8;
        type            epsilonWallFunction;
        value           nonuniform List<scalar> 9(0.000252172 0.000135751 8.55402e-05 6.07373e-05 4.63582e-05 3.68341e-05 3.0016e-05 2.50113e-05 2.16128e-05);
    }
    Table_slave
    {
        Cmu             0.09;
        kappa           0.41;
        E               9.8;
        type            epsilonWallFunction;
        value           nonuniform List<scalar> 9(0.00025954 0.000214084 0.00020016 0.000194143 0.000189851 0.000182766 0.000168712 0.000149839 0.000129992);
    }
    inlet
    {
        type            turbulentMixingLengthDissipationRateInlet;
        mixingLength    0.01;
        phi             phi;
        k               k;
        value           uniform 3.77336e-06;
    }
    outlet
    {
        type            zeroGradient;
    }
}


// ************************************************************************* //
