/*--------------------------------*- C++ -*----------------------------------*\
  =========                 |
  \\      /  F ield         | OpenFOAM: The Open Source CFD Toolbox
   \\    /   O peration     | Website:  https://openfoam.org
    \\  /    A nd           | Version:  6
     \\/     M anipulation  |
\*---------------------------------------------------------------------------*/
FoamFile
{
    version     2.0;
    format      ascii;
    class       volScalarField;
    location    "60";
    object      nut;
}
// * * * * * * * * * * * * * * * * * * * * * * * * * * * * * * * * * * * * * //

dimensions      [0 2 -1 0 0 0 0];

internalField   nonuniform List<scalar> 
459
(
0.00131837
0.00145279
0.00145537
0.00141436
0.00131287
0.00118947
0.0010904
0.00101979
0.00096904
0.000930792
0.000901724
0.000880423
0.000865864
0.000856796
0.000847951
0.000576883
0.000756017
0.000842058
0.000878431
0.000883395
0.000852994
0.000790344
0.000728951
0.00067569
0.000628195
0.000585184
0.000545788
0.000509295
0.000475048
0.000442361
0.000410532
0.000379189
0.000360878
0.000331419
0.00179982
0.00578778
0.00679117
0.0073616
0.0070099
0.00617566
0.00532804
0.00466461
0.00425729
0.00397315
0.00367979
0.00328716
0.00281872
0.00227143
0.00161113
0.000926757
0.000656049
0.000712668
0.0027777
0.00387112
0.00428021
0.0041124
0.00346787
0.00241621
0.00207718
0.00181514
0.00159364
0.00140012
0.00123121
0.00108289
0.000950202
0.000829135
0.000729957
0.000663013
0.00083294
0.000438995
0.00200262
0.00672068
0.00774269
0.00961225
0.00994083
0.00943813
0.00851026
0.0072826
0.0061915
0.00549428
0.00511174
0.00463115
0.00392259
0.00310616
0.00228737
0.00158172
0.0010347
0.00110005
0.00449318
0.0052113
0.00511936
0.00458439
0.00329952
0.000892813
0.000726276
0.000622694
0.000555563
0.000507746
0.000470296
0.000439291
0.00041339
0.00039376
0.000467692
0.000565587
0.00106209
0.000531146
0.00203445
0.0030009
0.00358093
0.00472702
0.00638173
0.0077504
0.00849669
0.00864218
0.00822893
0.00723298
0.0064521
0.00601628
0.00535388
0.00438339
0.00329869
0.00230552
0.00159914
0.00128202
0.00357331
0.00493921
0.00494992
0.0045257
0.00397984
0.00278538
0.000901883
0.000845772
0.000826986
0.000818578
0.000812463
0.000802189
0.000781038
0.000750713
0.000715958
0.00072265
0.000753588
0.00138484
0.000623112
0.00335173
0.00384146
0.00380897
0.00384369
0.00437757
0.00541987
0.00662704
0.00764085
0.00819308
0.00811742
0.00769382
0.00733701
0.00707924
0.00657209
0.00587906
0.00514757
0.0045356
0.00420714
0.00435003
0.00426035
0.00394637
0.00371147
0.00373061
0.0039191
0.00396219
0.00406954
0.00409081
0.00409496
0.00406849
0.00398888
0.00382531
0.00345775
0.00289624
0.00230815
0.00179911
0.0015803
0.00108982
0.000748295
0.000855993
0.000983438
0.00378256
0.0048192
0.00467426
0.0043387
0.00436086
0.0049074
0.00585787
0.00690813
0.00770766
0.00802444
0.00794384
0.00795969
0.00800859
0.00783224
0.00737038
0.00669736
0.00587713
0.00501723
0.00425937
0.00363715
0.00322201
0.00310134
0.00333455
0.00385972
0.00440139
0.00472404
0.00489804
0.004978
0.00499485
0.00494875
0.00483935
0.00464395
0.00423495
0.00363359
0.00296159
0.00222122
0.00170598
0.00137374
0.00176778
0.00106287
0.00402083
0.00557711
0.0055261
0.00465042
0.00449521
0.00484359
0.00562979
0.00659136
0.00738582
0.00777951
0.00780616
0.00779469
0.00805779
0.00830556
0.00814
0.00764415
0.0068399
0.00581008
0.00471673
0.00375361
0.00306407
0.00275075
0.00289308
0.00345282
0.00412461
0.00452697
0.00474263
0.00485918
0.00490439
0.00489038
0.00484062
0.00478133
0.00468224
0.00431729
0.00376574
0.00312787
0.00262927
0.0024341
0.00233535
0.00131089
0.00430424
0.00549754
0.00573424
0.00487365
0.00477392
0.00503907
0.00574428
0.00658822
0.00728641
0.00763573
0.00765866
0.00758644
0.00768386
0.00798696
0.00821145
0.00806939
0.00752578
0.00666223
0.00558112
0.00442991
0.00336471
0.00264351
0.00249089
0.00296067
0.00373185
0.00421137
0.004425
0.00451335
0.00453021
0.00450694
0.00448593
0.00451547
0.00461957
0.00464982
0.0043956
0.00427182
0.0044432
0.00473711
0.00518589
0.00179006
0.00469628
0.00548061
0.00742619
0.00522758
0.00526231
0.00570684
0.00615688
0.00683159
0.00743821
0.00768577
0.00765006
0.00749812
0.00741913
0.00750092
0.00768583
0.00772743
0.00749758
0.00697403
0.00619598
0.00520657
0.00395766
0.00279305
0.00217344
0.00244123
0.0032849
0.00391517
0.0041607
0.00420383
0.00413312
0.00399643
0.00384034
0.00369824
0.00357357
0.00347209
0.00338478
0.00329483
0.00312479
0.00284559
0.0025651
0.00163646
0.0102719
0.00568052
0.00546935
0.00656086
0.00685197
0.00730369
0.00773873
0.007852
0.00768133
0.00739377
0.00712121
0.00693749
0.0068502
0.00678558
0.00663173
0.00633616
0.00587998
0.00525182
0.00439736
0.00315223
0.00194865
0.00192229
0.002725
0.00354059
0.00392568
0.00401462
0.0039404
0.00377864
0.00359625
0.00345414
0.00337849
0.00333165
0.00326127
0.00311884
0.00285039
0.00245796
0.00201529
0.00129037
0.00377315
0.00380257
0.00588429
0.00651703
0.00687215
0.00717205
0.00735322
0.00722622
0.00683929
0.00638377
0.00594224
0.00556321
0.00525767
0.00500756
0.00475902
0.00451437
0.00425331
0.00393447
0.00346975
0.00270179
0.00172707
0.0014196
0.00202247
0.00277066
0.00316056
0.00334314
0.00340836
0.00341142
0.00337804
0.00335775
0.00338502
0.00343297
0.00345834
0.00342136
0.0032868
0.00308012
0.00258679
0.00131041
0.00191056
0.00218265
0.00243251
0.00172865
0.00181342
0.00192856
0.00199205
0.00199746
0.00194143
0.00181508
0.00170563
0.00160249
0.00150755
0.00142157
0.00134431
0.00127642
0.00121855
0.00116768
0.00112153
0.00107756
0.00103172
0.000978221
0.000918009
0.000867729
0.000898918
0.000935326
0.00096122
0.000985318
0.00101148
0.00104379
0.00108705
0.00114178
0.00120621
0.00127988
0.00135968
0.00144816
0.00148279
0.00144118
0.00133336
0.0012251
)
;

boundaryField
{
    floor
    {
        type            nutkWallFunction;
        Cmu             0.09;
        kappa           0.41;
        E               9.8;
        value           nonuniform List<scalar> 
29
(
0.000102683
6.94492e-05
9.15647e-05
0.000101961
0.000106313
0.000106906
0.000103271
9.57325e-05
8.82756e-05
8.17455e-05
7.58703e-05
7.05031e-05
6.55444e-05
6.09114e-05
5.65256e-05
5.23024e-05
4.81519e-05
4.40255e-05
4.15974e-05
3.76584e-05
3.76583e-05
5.18767e-05
6.37e-05
7.52486e-05
0.000102683
6.94492e-05
8.63118e-05
0.000132433
0.000153443
)
;
    }
    ceiling
    {
        type            nutkWallFunction;
        Cmu             0.09;
        kappa           0.41;
        E               9.8;
        value           nonuniform List<scalar> 
43
(
0.000223651
0.000253224
0.000280038
0.000203634
0.000212994
0.000225631
0.000232563
0.000233152
0.000227035
0.000213173
0.000201082
0.000189612
0.000178982
0.000169293
0.000160529
0.000152783
0.000146143
0.000140278
0.000134932
0.000129813
0.000124448
0.00011815
0.000111019
0.000105041
0.000108804
0.000113104
0.00011616
0.000118999
0.000122076
0.000125865
0.000130916
0.000137274
0.000144714
0.000153167
0.000162261
0.000172273
0.000176179
0.00017149
0.000159265
0.00014688
0.000512871
0.000590528
0.000419687
)
;
    }
    sWall
    {
        type            nutkWallFunction;
        Cmu             0.09;
        kappa           0.41;
        E               9.8;
        value           uniform 0.000223708;
    }
    nWall
    {
        type            nutkWallFunction;
        Cmu             0.09;
        kappa           0.41;
        E               9.8;
        value           nonuniform List<scalar> 6(0.000118776 0.0001281 0.000156723 0.000154373 0.000156661 0.000146892);
    }
    sideWalls
    {
        type            empty;
    }
    glass1
    {
        type            nutkWallFunction;
        Cmu             0.09;
        kappa           0.41;
        E               9.8;
        value           nonuniform List<scalar> 9(0.000157744 0.000211784 0.000234057 0.000237531 0.000376994 0.000421303 0.000445553 0.000474204 0.000513531);
    }
    glass2
    {
        type            nutkWallFunction;
        Cmu             0.09;
        kappa           0.41;
        E               9.8;
        value           nonuniform List<scalar> 2(0.000210516 0.000193492);
    }
    sun
    {
        type            nutkWallFunction;
        Cmu             0.09;
        kappa           0.41;
        E               9.8;
        value           nonuniform List<scalar> 
14
(
0.000157555
0.000172787
0.000173074
0.000168442
0.000156918
0.000142775
0.000131298
0.000123047
0.000117075
0.000112551
0.000109099
0.000106561
0.000104823
0.000103739
)
;
    }
    heatsource1
    {
        type            nutkWallFunction;
        Cmu             0.09;
        kappa           0.41;
        E               9.8;
        value           nonuniform List<scalar> 3(9.06421e-05 0.000103629 0.000118768);
    }
    heatsource2
    {
        type            nutkWallFunction;
        Cmu             0.09;
        kappa           0.41;
        E               9.8;
        value           nonuniform List<scalar> 4(0.000112085 7.93269e-05 7.93269e-05 0.000124826);
    }
    Table_master
    {
        type            nutkWallFunction;
        Cmu             0.09;
        kappa           0.41;
        E               9.8;
        value           nonuniform List<scalar> 9(0.000108055 8.79755e-05 7.52101e-05 6.68009e-05 6.0736e-05 5.59372e-05 5.19285e-05 4.85524e-05 4.59757e-05);
    }
    Table_slave
    {
        type            nutkWallFunction;
        Cmu             0.09;
        kappa           0.41;
        E               9.8;
        value           nonuniform List<scalar> 9(0.000109095 0.000102397 0.000100145 9.91369e-05 9.84038e-05 9.71687e-05 9.46163e-05 9.0941e-05 8.67052e-05);
    }
    inlet
    {
        type            calculated;
        value           uniform 3.3541e-05;
    }
    outlet
    {
        type            calculated;
        value           nonuniform List<scalar> 2(0.00191056 0.00218265);
    }
}


// ************************************************************************* //
