/*--------------------------------*- C++ -*----------------------------------*\
  =========                 |
  \\      /  F ield         | OpenFOAM: The Open Source CFD Toolbox
   \\    /   O peration     | Website:  https://openfoam.org
    \\  /    A nd           | Version:  6
     \\/     M anipulation  |
\*---------------------------------------------------------------------------*/
FoamFile
{
    version     2.0;
    format      ascii;
    class       surfaceScalarField;
    location    "60";
    object      phi;
}
// * * * * * * * * * * * * * * * * * * * * * * * * * * * * * * * * * * * * * //

dimensions      [1 0 -1 0 0 0 0];

internalField   nonuniform List<scalar> 
852
(
-0.00339997
0.00345954
-0.00451868
0.00111876
-0.00481017
0.000291549
-0.00481631
6.20699e-06
-0.00477249
-4.3755e-05
-0.00468896
-8.34619e-05
-0.00453042
-0.000158464
-0.00428856
-0.00024178
-0.00396049
-0.00032799
-0.00355669
-0.000403712
-0.00308682
-0.000469773
-0.00255553
-0.000531191
-0.00193532
-0.0006201
-0.00112154
-0.000813669
-0.00111816
-0.000483189
0.00048749
-0.000251108
-0.00023204
0.000186539
-0.000437577
0.000689263
-0.000502633
0.00125957
-0.000570208
0.00174706
-0.000487396
0.00192402
-0.000176875
0.0019318
-7.72111e-06
0.00189307
3.87709e-05
0.00183921
5.38905e-05
0.00177788
6.13616e-05
0.00171369
6.42021e-05
0.00164717
6.65354e-05
0.00157261
7.45629e-05
0.0014736
9.90209e-05
0.00132457
0.000149037
0.00111796
0.000206614
0.000867778
0.000250191
0.000873947
-0.00219764
0.00581487
-0.0028406
0.00176179
-0.00277694
0.000227987
-0.00271472
-5.59046e-05
-0.0030077
0.000249322
-0.00339579
0.000304721
-0.00364463
9.04722e-05
-0.00370043
-0.000185884
-0.00359328
-0.000435038
-0.00336766
-0.000629226
-0.00305554
-0.000781771
-0.00266817
-0.000918436
-0.00219424
-0.00109389
-0.00167493
-0.00133284
-0.00123279
-0.00156014
0.000227687
-0.00146038
0.000227725
0.000473327
2.5386e-05
0.000197113
4.42568e-05
0.00011397
-0.000354311
0.000379737
-0.000768239
0.000835748
-0.00102604
0.00128736
-0.000938846
0.00138327
-0.000272665
0.00137822
-2.57655e-06
0.00136774
4.93037e-05
0.0013572
6.44671e-05
0.0013478
7.07943e-05
0.00134021
7.18037e-05
0.001334
7.27601e-05
0.00132718
8.13978e-05
0.00129554
0.000130662
0.00117
0.000274586
0.000942149
0.000434478
0.00064716
0.000545193
0.00153669
-0.00106053
0.00712165
-4.10236e-05
0.000742339
0.00116576
-0.000978654
0.00107988
3.01185e-05
0.000392226
0.000937118
-0.000542673
0.00123978
-0.00151653
0.00106446
-0.00231124
0.000608955
-0.00274378
-2.37939e-06
-0.0028541
-0.000518787
-0.00282882
-0.000806915
-0.00272455
-0.00102257
-0.00257039
-0.00124789
-0.0024022
-0.00150085
-0.00225071
-0.00171145
-0.00194174
-0.00176917
-0.00171384
-0.000730921
0.000770029
-0.000702562
1.60562e-05
-0.000520995
-0.000535682
-0.000226947
-0.00106206
0.000180033
-0.00143279
0.000905952
-0.00166455
0.000633591
0.000631252
0.000680758
0.000745409
0.000816377
0.000888349
0.000961275
0.00104284
0.00117366
0.00104331
0.000404951
0.000803423
0.000674381
0.000464166
0.000884466
0.00202379
0.00636248
0.00109103
0.00897523
-0.00187023
0.00881726
-0.000820515
0.00769618
0.00115137
0.00613297
0.00250051
0.00439052
0.0029824
0.00261417
0.00284099
0.000895173
0.00232812
-0.000646681
0.00153966
-0.00173989
0.000574548
-0.00224523
-0.000301445
-0.00250376
-0.000763893
-0.00269861
-0.00105287
-0.00289589
-0.00130337
-0.00311333
-0.00149378
-0.00332922
-0.00155306
-0.00380513
-0.0012377
-0.00310333
-0.00068762
-0.00209145
-0.000241647
-0.00161683
-0.000458329
-0.00120651
-0.000945742
-0.000856382
-0.00141193
-0.00060197
-0.00168695
-0.000706936
-0.00155935
0.000192355
-0.000899229
0.000758668
-0.000566296
0.00118882
-0.000430159
0.00153843
-0.000349624
0.00182005
-0.000281655
0.00202159
-0.000201594
0.00210617
-8.46473e-05
0.00202015
8.59429e-05
0.00169961
0.000320456
0.0014141
0.00069051
0.000974134
0.00111438
0.000332365
0.00152626
0.00238494
0.00951816
-0.00809715
0.0123791
-0.00473101
0.0120692
-0.000510517
0.0108064
0.0024143
0.00912935
0.00417775
0.00720258
0.00490931
0.00521155
0.00483217
0.00333904
0.00420077
0.00164132
0.00323753
7.50691e-05
0.00214092
-0.0011278
0.000901537
-0.00181047
-8.10889e-05
-0.00222071
-0.000642459
-0.00254797
-0.000975907
-0.00284356
-0.00119796
-0.00311346
-0.00128291
-0.00320932
-0.00114156
-0.00299948
-0.000897167
-0.00246685
-0.000773984
-0.00196253
-0.000962353
-0.00155312
-0.00135487
-0.00120118
-0.00176359
-0.000890728
-0.00199713
-0.000590089
-0.00185973
-8.62213e-05
-0.00140287
0.000377516
-0.00102984
0.000748686
-0.000801164
0.00106179
-0.00066259
0.00132777
-0.000547509
0.00154356
-0.000417282
0.00169042
-0.000231414
0.00173488
4.15551e-05
0.00166043
0.000394958
0.00151995
0.000831041
0.0013012
0.00133317
0.000871623
0.00195587
0.00086902
0.00238758
-0.000769474
0.00163834
-0.00135845
0.000588812
-0.00130032
0.00521662
-0.012931
0.00684675
-0.00636103
0.00724381
-0.000907462
0.00698706
0.00267118
0.00645466
0.0047103
0.00558824
0.00577587
0.00449851
0.00592203
0.00333768
0.00536173
0.00219457
0.00438075
0.00112879
0.00320681
7.373e-05
0.00195669
-0.000798994
0.000791732
-0.00138253
-5.87837e-05
-0.00177204
-0.000586205
-0.00209301
-0.000876765
-0.0023532
-0.00102247
-0.0024678
-0.00102667
-0.00239047
-0.000974188
-0.00215082
-0.00101332
-0.00187745
-0.00123541
-0.001622
-0.00161003
-0.00136318
-0.00202213
-0.00106412
-0.00229591
-0.000714306
-0.00220928
-0.000354338
-0.00176261
-1.57012e-05
-0.00136829
0.000283229
-0.00109994
0.000543513
-0.000922745
0.000779351
-0.000783241
0.000999098
-0.000636942
0.00120049
-0.000432737
0.00136277
-0.000120668
0.00146387
0.000293911
0.00154079
0.000754165
0.00164506
0.00122894
0.00184475
0.0017562
0.00228055
0.0019518
0.00256236
0.00135657
0.00211574
0.00103546
0.000883422
0.000272617
-0.0127582
0.00119452
-0.00728279
0.00257832
-0.00229107
0.00265206
0.00259762
0.00287755
0.00448498
0.0028748
0.00577878
0.00267426
0.00612271
0.00232299
0.00571313
0.00187584
0.00482801
0.00138123
0.0037015
0.000837348
0.00250065
0.000241037
0.00138812
-0.000318149
0.000500501
-0.000760074
-0.000144131
-0.00108652
-0.000550133
-0.00133575
-0.000773007
-0.00149244
-0.000869721
-0.00154311
-0.000923226
-0.00152296
-0.00103316
-0.00148753
-0.00127053
-0.00144672
-0.00165054
-0.00136114
-0.00210743
-0.00116578
-0.00249099
-0.000862058
-0.00251272
-0.00059752
-0.00202694
-0.00039465
-0.00157099
-0.00021791
-0.00127655
-5.65376e-05
-0.00108401
0.000103351
-0.00094305
0.000276693
-0.00081022
0.00048094
-0.000636934
0.000728611
-0.000368298
0.000985766
3.67913e-05
0.00124405
0.00049591
0.001562
0.000911012
0.00204598
0.00127225
0.00273496
0.00126284
0.0033339
0.00075765
0.00325602
0.00111336
0.00420813
-0.00283988
-0.00941364
-0.00390609
-0.00621639
-0.00268465
-0.0035123
-0.00176135
0.00167451
-0.000648467
0.00337228
0.000234323
0.00489615
0.000810756
0.00554642
0.00112872
0.00539528
0.00128516
0.00467167
0.00132021
0.00366654
0.00123156
0.00258937
0.00102154
0.00159821
0.000725305
0.000796818
0.000385588
0.000195696
7.09479e-05
-0.000235348
-0.000188104
-0.000513773
-0.000384764
-0.000672842
-0.000531124
-0.000776612
-0.000666499
-0.000897506
-0.000833204
-0.00110353
-0.00102367
-0.00145979
-0.00117498
-0.00195584
-0.00115986
-0.0025058
-0.000943609
-0.00272865
-0.000777732
-0.00219262
-0.000724987
-0.0016236
-0.000713452
-0.00128798
-0.000714718
-0.00108267
-0.000712303
-0.000945407
-0.000690857
-0.000831621
-0.000625477
-0.000702276
-0.00047591
-0.000517829
-0.000204105
-0.000234981
0.0001254
0.00016643
0.000473655
0.00056278
0.000889858
0.000856066
0.00129419
0.000858525
0.00146919
0.000582679
0.000779788
0.0018028
0.00531915
-0.00885401
-0.0150675
-0.00996108
-0.00861856
-0.0057872
-0.00249918
-0.00349104
0.00107629
-0.00192758
0.00333284
-0.000756078
0.00437504
0.000109871
0.00452945
0.00074295
0.00403869
0.00120999
0.00319957
0.00149861
0.00230082
0.00160936
0.00148754
0.0015751
0.000831156
0.00143101
0.000339886
0.00122037
-2.45894e-05
0.000991316
-0.000284575
0.00077288
-0.000454231
0.000565953
-0.000569478
0.000341205
-0.000672517
4.66958e-05
-0.000808755
-0.000345484
-0.00106732
-0.000774799
-0.00152623
-0.00102057
-0.00225969
-0.000921353
-0.00282747
-0.000842663
-0.00227112
-0.000965009
-0.00150114
-0.00115827
-0.00109465
-0.00137416
-0.000866731
-0.00160793
-0.000711595
-0.00187221
-0.000567299
-0.00218796
-0.000386497
-0.00258214
-0.000123608
-0.00306156
0.000244484
-0.00363458
0.000739499
-0.00442842
0.00135667
-0.00558828
0.00201598
-0.0072465
0.00251679
-0.0091925
0.00252873
-0.00858994
0.00120028
-0.00290028
-0.00839092
0.000374434
-0.0066363
-0.00425365
-0.00487994
-0.000679924
-0.00329412
0.00174715
-0.00185885
0.0029399
-0.000618641
0.00328935
0.000381736
0.00303841
0.00119468
0.00238671
0.00177655
0.00171903
0.00213221
0.00113197
0.00229983
0.00066362
0.00232525
0.000314564
0.0022378
6.29686e-05
0.00207146
-0.000118116
0.00186702
-0.000249646
0.00164066
-0.000342942
0.0013839
-0.000415555
0.0010652
-0.000489821
0.000608867
-0.000610729
-2.75457e-05
-0.000889523
-0.000653272
-0.00163361
-0.000805743
-0.00267446
-0.00083679
-0.00223987
-0.00111777
-0.00122007
-0.00146619
-0.000746172
-0.00181814
-0.000514737
-0.00216877
-0.000360934
-0.00251361
-0.000222419
-0.00282704
-7.30342e-05
-0.00308081
0.000130204
-0.00328456
0.000448284
-0.00346222
0.000917209
-0.00363181
0.0015263
-0.0037709
0.00215513
-0.00380615
0.00255209
-0.00352797
0.0022506
-0.00211031
-0.000217337
-0.00491594
-0.00178144
0.00215962
-0.004505
-0.00152994
-0.00482898
-0.000355804
-0.00390543
0.000823731
-0.00249859
0.0015332
-0.00101989
0.00181077
0.000298585
0.00172004
0.00138216
0.00130323
0.00216881
0.000932475
0.00268579
0.000615086
0.00298098
0.000368518
0.00310836
0.000187296
0.00311039
6.10498e-05
0.00302457
-3.21806e-05
0.00287895
-0.00010389
0.00268953
-0.000153363
0.00246056
-0.000186413
0.00218106
-0.000210118
0.00181362
-0.000243066
0.00127023
-0.0003459
0.000388575
-0.000751626
-0.000529457
-0.00175569
-0.0010431
-0.001726
-0.00146215
-0.000800931
-0.00179623
-0.000412043
-0.00206125
-0.000249679
-0.0022739
-0.000148252
-0.00244198
-5.43004e-05
-0.00256129
4.63124e-05
-0.00259474
0.000163689
-0.00249547
0.00034906
-0.00222499
0.000646764
-0.00177895
0.00108031
-0.00116239
0.00153861
-0.000146419
0.00153616
0.00128719
0.000817028
0.00163015
-0.000560245
-0.00318194
-0.00325232
-0.00559224
-0.00342717
-0.00495138
-0.00530178
-0.00447291
-0.00293455
-0.00111827
0.000607998
0.00191855
0.00285915
0.00348311
0.00386122
0.00405879
0.00413079
0.00411023
0.00401862
0.00387821
0.00370546
0.00350979
0.00328207
0.00295261
0.00221903
0.000485076
-0.00121427
-0.00198923
-0.00237589
-0.00260068
-0.00272455
-0.00275503
-0.00268562
-0.00249967
-0.00212928
-0.00146215
-0.000362447
0.00119446
0.00274834
0.00358332
0.00304208
)
;

boundaryField
{
    floor
    {
        type            calculated;
        value           nonuniform List<scalar> 
29
(
0
0
0
0
0
0
0
0
0
0
0
0
0
0
0
0
0
0
0
0
-6.15423e-06
-1.55643e-05
-2.29137e-05
-2.87598e-05
-3.25337e-06
-4.29364e-06
-1.11591e-05
-1.35898e-05
-1.39707e-05
)
;
    }
    ceiling
    {
        type            calculated;
        value           nonuniform List<scalar> 
43
(
-5.39038e-06
-5.78086e-06
-5.30152e-06
-5.58214e-06
-5.26354e-06
-5.00801e-06
-5.03662e-06
-5.38456e-06
-6.11645e-06
-7.20903e-06
-8.01589e-06
-8.76394e-06
-9.47599e-06
-1.01617e-05
-1.08307e-05
-1.14899e-05
-1.21445e-05
-1.2813e-05
-1.35147e-05
-1.42776e-05
-1.51518e-05
-1.62348e-05
-1.77439e-05
-2.09801e-05
-2.61944e-05
-2.59149e-05
-2.53403e-05
-2.4847e-05
-2.4351e-05
-2.37792e-05
-2.30646e-05
-2.2221e-05
-2.12996e-05
-2.03266e-05
-1.93482e-05
-1.82428e-05
-1.768e-05
-1.79119e-05
-1.89633e-05
-1.95881e-05
-1.57179e-06
-2.68192e-06
-3.57422e-06
)
;
    }
    sWall
    {
        type            calculated;
        value           uniform -0.000207537;
    }
    nWall
    {
        type            calculated;
        value           nonuniform List<scalar> 6(-5.831e-05 -6.79638e-05 -6.86531e-05 -9.46038e-05 -0.000103807 -0.000120229);
    }
    sideWalls
    {
        type            empty;
        value           nonuniform 0();
    }
    glass1
    {
        type            calculated;
        value           nonuniform List<scalar> 9(-5.95242e-05 -0.000157632 -0.000246187 -0.000331777 -0.000329778 -0.000382609 -0.000445209 -0.000504554 -0.00055788);
    }
    glass2
    {
        type            calculated;
        value           nonuniform List<scalar> 2(-0.000331203 -0.000370464);
    }
    sun
    {
        type            calculated;
        value           uniform 0;
    }
    heatsource1
    {
        type            calculated;
        value           nonuniform List<scalar> 3(2.06109e-07 2.06128e-07 2.06144e-07);
    }
    heatsource2
    {
        type            calculated;
        value           nonuniform List<scalar> 4(5.15389e-08 5.17165e-08 0 0);
    }
    Table_master
    {
        type            calculated;
        value           nonuniform List<scalar> 9(-1.548e-07 -1.54992e-07 -1.55011e-07 -1.5501e-07 -1.54999e-07 -1.54984e-07 -1.54966e-07 -1.54944e-07 -1.54902e-07);
    }
    Table_slave
    {
        type            calculated;
        value           nonuniform List<scalar> 9(1.54719e-07 1.54821e-07 1.54688e-07 1.54576e-07 1.54487e-07 1.54425e-07 1.54407e-07 1.54422e-07 1.5447e-07);
    }
    inlet
    {
        type            calculated;
        value           uniform -0.000601886;
    }
    outlet
    {
        type            calculated;
        value           nonuniform List<scalar> 2(0.00346541 0.00234586);
    }
}


// ************************************************************************* //
