/*--------------------------------*- C++ -*----------------------------------*\
  =========                 |
  \\      /  F ield         | OpenFOAM: The Open Source CFD Toolbox
   \\    /   O peration     | Website:  https://openfoam.org
    \\  /    A nd           | Version:  6
     \\/     M anipulation  |
\*---------------------------------------------------------------------------*/
FoamFile
{
    version     2.0;
    format      ascii;
    class       volScalarField;
    location    "60";
    object      T;
}
// * * * * * * * * * * * * * * * * * * * * * * * * * * * * * * * * * * * * * //

dimensions      [0 0 0 1 0 0 0];

internalField   nonuniform List<scalar> 
459
(
302.218
301.955
301.926
301.898
301.869
301.845
301.827
301.814
301.804
301.795
301.788
301.782
301.777
301.775
301.776
301.766
301.72
301.705
301.703
301.702
301.699
301.694
301.691
301.689
301.69
301.691
301.694
301.697
301.702
301.707
301.713
301.719
301.726
301.752
302.471
302.19
302.207
302.175
302.097
302.016
301.951
301.907
301.874
301.849
301.83
301.815
301.803
301.792
301.779
301.765
301.703
301.75
301.718
301.711
301.717
301.719
301.711
301.691
301.675
301.665
301.659
301.657
301.656
301.657
301.659
301.662
301.666
301.673
301.683
301.731
302.763
302.461
302.651
302.581
302.482
302.35
302.219
302.102
302.005
301.943
301.898
301.87
301.85
301.832
301.814
301.794
301.776
301.727
301.731
301.746
301.758
301.76
301.747
301.705
301.67
301.653
301.645
301.641
301.64
301.64
301.64
301.641
301.646
301.653
301.666
301.722
303.142
303.112
303.109
303.065
302.957
302.811
302.653
302.494
302.305
302.102
301.993
301.939
301.909
301.887
301.864
301.839
301.813
301.794
301.78
301.796
301.81
301.817
301.808
301.787
301.764
301.747
301.741
301.738
301.736
301.734
301.73
301.725
301.719
301.699
301.68
301.672
301.719
303.629
303.427
303.386
303.335
303.241
303.11
302.952
302.777
302.585
302.38
302.146
302.029
301.985
301.961
301.941
301.92
301.899
301.884
301.878
301.882
301.887
301.882
301.863
301.835
301.815
301.801
301.796
301.794
301.793
301.791
301.785
301.774
301.759
301.737
301.71
301.689
301.708
301.743
301.809
301.828
303.459
303.078
303.047
303.114
303.154
303.124
303.03
302.889
302.717
302.524
302.324
302.158
302.076
302.045
302.026
302.007
301.989
301.976
301.969
301.968
301.964
301.948
301.917
301.88
301.856
301.846
301.842
301.842
301.841
301.838
301.832
301.818
301.797
301.771
301.74
301.713
301.709
301.721
301.739
301.776
303.285
302.745
302.778
302.948
303.069
303.094
303.038
302.924
302.773
302.601
302.428
302.287
302.195
302.142
302.12
302.102
302.085
302.07
302.059
302.051
302.04
302.014
301.971
301.921
301.893
301.884
301.883
301.883
301.883
301.88
301.873
301.858
301.833
301.804
301.773
301.745
301.732
301.734
301.743
301.775
303.095
302.665
302.729
302.952
303.049
303.073
303.022
302.922
302.787
302.639
302.496
302.381
302.304
302.255
302.223
302.201
302.183
302.165
302.149
302.134
302.116
302.083
302.029
301.961
301.924
301.915
301.915
301.916
301.916
301.912
301.906
301.894
301.875
301.846
301.82
301.801
301.798
301.814
301.835
302.003
302.932
302.585
302.572
302.939
303.023
303.034
302.992
302.904
302.78
302.656
302.544
302.456
302.396
302.356
302.325
302.301
302.281
302.26
302.239
302.218
302.194
302.16
302.097
302.005
301.949
301.939
301.939
301.941
301.941
301.94
301.937
301.936
301.94
301.948
301.964
301.995
302.04
302.085
302.118
302.193
302.155
302.861
302.958
302.974
302.942
302.872
302.769
302.664
302.581
302.517
302.472
302.44
302.416
302.393
302.371
302.349
302.326
302.302
302.277
302.247
302.182
302.062
301.971
301.958
301.959
301.961
301.963
301.967
301.971
301.977
301.984
301.994
302.012
302.038
302.07
302.098
302.116
302.129
302.605
302.85
302.89
302.902
302.882
302.832
302.755
302.67
302.612
302.567
302.535
302.51
302.489
302.47
302.451
302.43
302.409
302.385
302.36
302.334
302.296
302.147
301.992
301.977
301.977
301.978
301.981
301.984
301.988
301.993
302
302.009
302.022
302.041
302.063
302.084
302.078
302.11
302.803
302.72
302.724
302.818
302.828
302.83
302.819
302.79
302.739
302.677
302.641
302.613
302.592
302.574
302.559
302.544
302.529
302.513
302.496
302.477
302.456
302.433
302.398
302.285
302.025
302.004
302.007
302.008
302.009
302.01
302.011
302.012
302.014
302.018
302.025
302.038
302.051
302.059
302.061
302.098
)
;

boundaryField
{
    floor
    {
        type            wallHeatTransfer;
        Tinf            uniform 305.2;
        alphaWall       uniform 0.24;
        value           nonuniform List<scalar> 
29
(
302.207
302.335
302.196
302.147
302.132
302.13
302.138
302.159
302.184
302.21
302.238
302.267
302.297
302.329
302.362
302.398
302.436
302.478
302.507
302.569
302.569
302.42
302.331
302.266
302.207
302.335
302.242
302.088
302.108
)
;
    }
    ceiling
    {
        type            wallHeatTransfer;
        Tinf            uniform 303.2;
        alphaWall       uniform 0.24;
        value           nonuniform List<scalar> 
43
(
302.83
302.749
302.75
302.846
302.854
302.855
302.844
302.816
302.77
302.714
302.682
302.659
302.641
302.627
302.616
302.605
302.594
302.581
302.568
302.553
302.537
302.52
302.493
302.398
302.166
302.144
302.144
302.142
302.141
302.138
302.135
302.132
302.129
302.127
302.128
302.135
302.145
302.155
302.163
302.203
302.94
302.602
302.628
)
;
    }
    sWall
    {
        type            wallHeatTransfer;
        Tinf            uniform 315.2;
        alphaWall       uniform 0.36;
        value           uniform 304.021;
    }
    nWall
    {
        type            wallHeatTransfer;
        Tinf            uniform 307.2;
        alphaWall       uniform 0.36;
        value           nonuniform List<scalar> 6(302.69 302.599 302.482 302.798 302.773 302.797);
    }
    sideWalls
    {
        type            empty;
    }
    glass1
    {
        type            wallHeatTransfer;
        Tinf            uniform 315.2;
        alphaWall       uniform 4.3;
        value           nonuniform List<scalar> 9(310.598 309.879 309.719 309.847 308.804 308.401 308.143 307.853 307.529);
    }
    glass2
    {
        type            wallHeatTransfer;
        Tinf            uniform 307.2;
        alphaWall       uniform 4.3;
        value           nonuniform List<scalar> 2(305.016 305.19);
    }
    sun
    {
        type            wallHeatTransfer;
        Tinf            uniform 305.2;
        alphaWall       uniform 0.24;
        value           nonuniform List<scalar> 
14
(
302.488
302.227
302.199
302.18
302.171
302.173
302.18
302.186
302.191
302.195
302.198
302.201
302.202
302.203
)
;
    }
    heatsource1
    {
        type            fixedGradient;
        gradient        uniform 0;
    }
    heatsource2
    {
        type            fixedGradient;
        gradient        uniform 0;
    }
    Table_master
    {
        type            zeroGradient;
    }
    Table_slave
    {
        type            zeroGradient;
    }
    inlet
    {
        type            fixedValue;
        value           uniform 290.15;
    }
    outlet
    {
        type            zeroGradient;
    }
}


// ************************************************************************* //
