/*--------------------------------*- C++ -*----------------------------------*\
  =========                 |
  \\      /  F ield         | OpenFOAM: The Open Source CFD Toolbox
   \\    /   O peration     | Website:  https://openfoam.org
    \\  /    A nd           | Version:  6
     \\/     M anipulation  |
\*---------------------------------------------------------------------------*/
FoamFile
{
    version     2.0;
    format      ascii;
    class       volVectorField;
    location    "60";
    object      U;
}
// * * * * * * * * * * * * * * * * * * * * * * * * * * * * * * * * * * * * * //

dimensions      [0 1 -1 0 0 0 0];

internalField   nonuniform List<vector> 
459
(
(-0.0008796 0.097151 0)
(-0.189392 0.0263876 0)
(-0.201457 0.00387099 0)
(-0.206154 -0.00276251 0)
(-0.205741 -0.00431424 0)
(-0.203664 -0.00585924 0)
(-0.198469 -0.0079961 0)
(-0.189701 -0.0103066 0)
(-0.177365 -0.0127624 0)
(-0.161736 -0.0152562 0)
(-0.142999 -0.0178275 0)
(-0.120395 -0.0209238 0)
(-0.0933552 -0.0259109 0)
(-0.067973 -0.034663 0)
(-0.0685826 -0.045672 0)
(0.0394091 0.00861361 0)
(-0.0241676 -0.00786807 0)
(-0.0036505 -0.0159301 0)
(0.0185388 -0.0189486 0)
(0.0413726 -0.020572 0)
(0.0639677 -0.0172451 0)
(0.0798511 -0.00886576 0)
(0.0849024 -0.00422741 0)
(0.0833427 -0.00224887 0)
(0.0802856 -0.00126897 0)
(0.0774441 -0.00061742 0)
(0.0747629 -0.000135967 0)
(0.0720146 0.000272807 0)
(0.0690428 0.000754985 0)
(0.0654734 0.00158586 0)
(0.0604768 0.00308569 0)
(0.05313 0.00465177 0)
(0.0488545 0.00598812 0)
(-0.0185374 0.0242762 0)
(0.173205 0.193501 0)
(-0.149626 0.0609834 0)
(-0.117449 0.0105167 0)
(-0.113125 0.000819554 0)
(-0.121201 0.00304868 0)
(-0.13842 -0.000273501 0)
(-0.153379 -0.00690022 0)
(-0.159164 -0.0134252 0)
(-0.157547 -0.0194698 0)
(-0.149953 -0.0245107 0)
(-0.138282 -0.0286535 0)
(-0.122919 -0.0328678 0)
(-0.103898 -0.0391301 0)
(-0.082565 -0.0494722 0)
(-0.0625026 -0.0620155 0)
(-0.044802 -0.0674449 0)
(0.0275056 0.0101583 0)
(0.110782 0.0158077 0)
(0.00895841 0.00373894 0)
(-0.00181084 -0.0134403 0)
(0.00859444 -0.0267489 0)
(0.0254271 -0.0346531 0)
(0.0439244 -0.031511 0)
(0.0600701 -0.00951539 0)
(0.0620264 0.00112314 0)
(0.0596308 0.00443228 0)
(0.0581989 0.00534801 0)
(0.0577616 0.00553802 0)
(0.0575323 0.00544403 0)
(0.057276 0.00534081 0)
(0.0570146 0.00554841 0)
(0.0563646 0.00669392 0)
(0.0536313 0.0104198 0)
(0.0463372 0.0140223 0)
(0.0496198 0.0169599 0)
(-0.0718338 0.0502717 0)
(0.370614 0.275792 0)
(-0.12293 0.015828 0)
(0.0522412 -0.0512418 0)
(0.04705 -0.0199127 0)
(0.035922 0.0134919 0)
(-0.00115092 0.0234059 0)
(-0.0453884 0.0127644 0)
(-0.0853553 -0.00495514 0)
(-0.112698 -0.0208744 0)
(-0.121486 -0.030799 0)
(-0.122832 -0.0384487 0)
(-0.119418 -0.0454068 0)
(-0.113402 -0.0538576 0)
(-0.1058 -0.0643156 0)
(-0.0979506 -0.0735564 0)
(-0.0935058 -0.0753095 0)
(-0.1013 -0.0671351 0)
(0.038184 0.0257461 0)
(-0.0356247 0.003132 0)
(-0.0289248 -0.0167048 0)
(-0.0165705 -0.0377667 0)
(-0.000400692 -0.0529562 0)
(0.0147536 -0.0581902 0)
(0.0430158 -0.0278762 0)
(0.0341307 -0.0101541 0)
(0.0277996 -0.00389505 0)
(0.0292937 -0.00171175 0)
(0.0330296 -0.000808482 0)
(0.0365055 -0.000455089 0)
(0.0396303 -0.000296081 0)
(0.0429458 4.42507e-05 0)
(0.0471625 0.00255978 0)
(0.0488884 0.014921 0)
(0.0403627 0.0240104 0)
(0.0573874 0.0308626 0)
(-0.120089 0.0754209 0)
(0.618197 0.352919 0)
(0.346918 0.120237 0)
(0.355531 0.065867 0)
(0.360604 0.0864835 0)
(0.306477 0.104979 0)
(0.228528 0.105093 0)
(0.149445 0.0898798 0)
(0.0754329 0.0648561 0)
(0.00300001 0.0287678 0)
(-0.0600754 -0.010049 0)
(-0.0893097 -0.0300678 0)
(-0.102884 -0.0415653 0)
(-0.111515 -0.0516488 0)
(-0.119063 -0.0615359 0)
(-0.127955 -0.0683724 0)
(-0.141845 -0.0658644 0)
(-0.159556 -0.0423742 0)
(-0.150492 0.0157125 0)
(-0.100197 0.0122903 0)
(-0.0840398 -0.00823182 0)
(-0.060356 -0.0313371 0)
(-0.0438023 -0.0530003 0)
(-0.0315086 -0.0667877 0)
(-0.0260075 -0.0666684 0)
(-0.0158344 -0.0366529 0)
(0.0205557 -0.0231357 0)
(0.0419613 -0.0175173 0)
(0.0588016 -0.0141106 0)
(0.0722946 -0.0114832 0)
(0.0826806 -0.00883849 0)
(0.0892429 -0.00550574 0)
(0.0899389 -0.000930677 0)
(0.0827979 0.00541988 0)
(0.0676869 0.0213571 0)
(0.0489876 0.0382645 0)
(0.0687097 0.0530676 0)
(-0.155695 0.0962426 0)
(0.798936 -0.264872 0)
(0.451616 -0.217887 0)
(0.490131 -0.10479 0)
(0.504155 0.0202976 0)
(0.444461 0.113312 0)
(0.35563 0.158209 0)
(0.265542 0.163538 0)
(0.18115 0.143069 0)
(0.103724 0.107351 0)
(0.0361103 0.0636733 0)
(-0.0306046 0.00904193 0)
(-0.0675744 -0.0220849 0)
(-0.0874867 -0.0381186 0)
(-0.102425 -0.0500912 0)
(-0.116141 -0.0592343 0)
(-0.12952 -0.0636892 0)
(-0.138249 -0.0582336 0)
(-0.134955 -0.0385119 0)
(-0.117312 -0.0257417 0)
(-0.0947739 -0.0326192 0)
(-0.0747246 -0.0508502 0)
(-0.0588988 -0.0689918 0)
(-0.0452089 -0.0789718 0)
(-0.0320339 -0.0733051 0)
(-0.015269 -0.0514846 0)
(0.00695263 -0.0360926 0)
(0.0245201 -0.0274711 0)
(0.0390825 -0.02221 0)
(0.051445 -0.0178517 0)
(0.0617576 -0.0128817 0)
(0.0696621 -0.00582461 0)
(0.0744853 0.00424479 0)
(0.0743374 0.0172056 0)
(0.069507 0.0345224 0)
(0.0581193 0.0538907 0)
(0.080243 0.0763896 0)
(-0.0202437 0.105091 0)
(0.0672173 0.0523818 0)
(-0.0492847 -0.0239542 0)
(-0.300232 -0.0519789 0)
(0.732992 -0.522839 0)
(0.147557 -0.284373 0)
(0.257754 -0.046614 0)
(0.326829 0.111463 0)
(0.309627 0.197141 0)
(0.265314 0.235137 0)
(0.217217 0.236227 0)
(0.167129 0.210552 0)
(0.116532 0.168586 0)
(0.0690333 0.119104 0)
(0.0237904 0.0661658 0)
(-0.0188431 0.0148575 0)
(-0.0498024 -0.0170663 0)
(-0.0684762 -0.0341678 0)
(-0.0835345 -0.044621 0)
(-0.0964946 -0.049584 0)
(-0.10495 -0.0480424 0)
(-0.105614 -0.0426584 0)
(-0.0981194 -0.0412026 0)
(-0.0863073 -0.0499245 0)
(-0.0748058 -0.0660415 0)
(-0.0642832 -0.0829268 0)
(-0.0526006 -0.0928906 0)
(-0.0385535 -0.0875839 0)
(-0.0226304 -0.0684593 0)
(-0.00788007 -0.0524804 0)
(0.00616413 -0.0415361 0)
(0.0178624 -0.0346931 0)
(0.0283888 -0.0291117 0)
(0.0380182 -0.0229477 0)
(0.0469367 -0.0141891 0)
(0.0552422 -0.00103912 0)
(0.0615962 0.0159606 0)
(0.0653805 0.0357099 0)
(0.0660268 0.0570404 0)
(0.0875019 0.0824178 0)
(0.0683799 0.0967278 0)
(0.111398 0.0718256 0)
(0.1275 0.0496251 0)
(-0.112624 0.00968769 0)
(0.622745 -0.561692 0)
(-0.176016 -0.280822 0)
(0.0617174 -0.0413025 0)
(0.151732 0.131042 0)
(0.136204 0.213897 0)
(0.128321 0.258987 0)
(0.121114 0.266741 0)
(0.107656 0.244479 0)
(0.0890549 0.203297 0)
(0.0683723 0.152997 0)
(0.0461374 0.0998077 0)
(0.022493 0.0506519 0)
(-0.00187038 0.0108346 0)
(-0.0250205 -0.0166005 0)
(-0.0402169 -0.0313174 0)
(-0.0526263 -0.0391327 0)
(-0.0615279 -0.0417222 0)
(-0.065885 -0.0424457 0)
(-0.066144 -0.0461215 0)
(-0.064532 -0.0563606 0)
(-0.063017 -0.0727098 0)
(-0.0609683 -0.0911639 0)
(-0.0549758 -0.10469 0)
(-0.0442047 -0.102693 0)
(-0.0305218 -0.0827708 0)
(-0.0209854 -0.0646396 0)
(-0.0130419 -0.0525727 0)
(-0.00590156 -0.0444962 0)
(0.000896717 -0.0383747 0)
(0.00776684 -0.0323777 0)
(0.0153944 -0.0242441 0)
(0.024565 -0.011462 0)
(0.0375389 0.00738988 0)
(0.0484109 0.0277049 0)
(0.0585856 0.0474932 0)
(0.0807747 0.068208 0)
(0.0967092 0.0730267 0)
(0.130444 0.0515872 0)
(0.170915 0.0498552 0)
(-0.0308771 0.11058 0)
(0.399958 -0.456269 0)
(-0.286461 -0.269825 0)
(-0.20613 -0.137821 0)
(-0.00913435 0.123227 0)
(-0.0458979 0.185057 0)
(-0.00353935 0.242651 0)
(0.0263263 0.260666 0)
(0.0428965 0.245693 0)
(0.0516354 0.209959 0)
(0.0552317 0.163277 0)
(0.0541972 0.113545 0)
(0.0483461 0.0678034 0)
(0.0382065 0.0310081 0)
(0.0243712 0.00332354 0)
(0.00942432 -0.0162709 0)
(-0.0029257 -0.0280258 0)
(-0.0126785 -0.033859 0)
(-0.019873 -0.0374693 0)
(-0.0255588 -0.0427322 0)
(-0.031676 -0.0528585 0)
(-0.0398677 -0.0695148 0)
(-0.0484381 -0.0908136 0)
(-0.0509788 -0.110755 0)
(-0.0463637 -0.115429 0)
(-0.0359268 -0.0935619 0)
(-0.031515 -0.0713209 0)
(-0.0307967 -0.0573333 0)
(-0.0306307 -0.0485092 0)
(-0.0306848 -0.0425494 0)
(-0.030382 -0.0376364 0)
(-0.0290243 -0.0321445 0)
(-0.0255295 -0.0244978 0)
(-0.0170156 -0.0131834 0)
(3.03857e-05 0.00313176 0)
(0.0127411 0.0183232 0)
(0.0313068 0.0284504 0)
(0.0476567 0.0207818 0)
(0.0663193 -0.00161537 0)
(0.131816 0.0596519 0)
(-0.484005 0.241289 0)
(0.116184 -0.334532 0)
(-0.580662 -0.275295 0)
(-0.730445 -0.244227 0)
(-0.180815 -0.0173459 0)
(-0.201872 0.108378 0)
(-0.111754 0.18626 0)
(-0.0535952 0.2216 0)
(-0.0120686 0.220418 0)
(0.0193646 0.192331 0)
(0.041958 0.152164 0)
(0.0582784 0.109011 0)
(0.0673511 0.0696473 0)
(0.0694368 0.0378282 0)
(0.0659839 0.0138543 0)
(0.0574745 -0.00401338 0)
(0.0477043 -0.0164766 0)
(0.0379124 -0.0243671 0)
(0.0287915 -0.0295728 0)
(0.0198498 -0.0345005 0)
(0.00955854 -0.0417791 0)
(-0.00595748 -0.0559361 0)
(-0.0256019 -0.0779035 0)
(-0.0388154 -0.105018 0)
(-0.0431388 -0.120038 0)
(-0.0379722 -0.0970636 0)
(-0.037431 -0.0700592 0)
(-0.0453375 -0.0544773 0)
(-0.0541598 -0.045005 0)
(-0.0637093 -0.0383549 0)
(-0.0742358 -0.0322685 0)
(-0.0864162 -0.0247713 0)
(-0.101537 -0.0138459 0)
(-0.120897 0.0022873 0)
(-0.142112 0.0231627 0)
(-0.168644 0.0466145 0)
(-0.209819 0.0701925 0)
(-0.268393 0.0892027 0)
(-0.333579 0.100602 0)
(-0.411733 0.10343 0)
(-0.699913 0.0958322 0)
(-1.54056 -0.264896 0)
(-0.130945 -0.165697 0)
(-0.251134 5.28502e-05 0)
(-0.173213 0.109913 0)
(-0.107741 0.160508 0)
(-0.0517028 0.172272 0)
(-0.00382378 0.155945 0)
(0.0351941 0.123267 0)
(0.0644987 0.0891894 0)
(0.0850401 0.0587395 0)
(0.0966226 0.0341993 0)
(0.100832 0.0156791 0)
(0.09942 0.00196806 0)
(0.0933014 -0.008068 0)
(0.0850065 -0.0148904 0)
(0.0756268 -0.0194464 0)
(0.0653664 -0.0229196 0)
(0.0533719 -0.0265815 0)
(0.0372515 -0.0326653 0)
(0.0123464 -0.0463165 0)
(-0.0127349 -0.0786328 0)
(-0.0305512 -0.108014 0)
(-0.0401067 -0.0834665 0)
(-0.0408316 -0.0505787 0)
(-0.0551602 -0.0369425 0)
(-0.0703215 -0.0304886 0)
(-0.0854778 -0.025898 0)
(-0.100647 -0.0204993 0)
(-0.115124 -0.0122853 0)
(-0.12746 0.00041795 0)
(-0.136514 0.0176136 0)
(-0.143506 0.0399565 0)
(-0.15015 0.0666079 0)
(-0.158478 0.0917754 0)
(-0.165267 0.102924 0)
(-0.153956 0.0766287 0)
(-0.119104 -0.032038 0)
(-0.289024 -0.242059 0)
(-0.274537 0.0449531 0)
(-0.089188 -0.142296 0)
(-0.21122 -0.0333594 0)
(-0.19119 0.0504089 0)
(-0.136872 0.0972279 0)
(-0.0753031 0.114177 0)
(-0.0153143 0.108337 0)
(0.0390699 0.0848551 0)
(0.0772795 0.0621568 0)
(0.105605 0.0432848 0)
(0.123462 0.0292042 0)
(0.132522 0.0197348 0)
(0.135136 0.0140727 0)
(0.132831 0.0106055 0)
(0.127498 0.00816195 0)
(0.12011 0.00676594 0)
(0.111089 0.00623676 0)
(0.100263 0.00617511 0)
(0.0864464 0.00517341 0)
(0.0667469 -0.00178659 0)
(0.0431786 -0.0332983 0)
(0.00346293 -0.0949541 0)
(-0.0464854 -0.0724339 0)
(-0.055009 -0.0104466 0)
(-0.0704179 0.0183479 0)
(-0.0831819 0.030873 0)
(-0.0934138 0.0372262 0)
(-0.101795 0.0402806 0)
(-0.108323 0.0402152 0)
(-0.111648 0.0391863 0)
(-0.109636 0.0424592 0)
(-0.100538 0.0530298 0)
(-0.084451 0.0714325 0)
(-0.0629499 0.0930265 0)
(-0.0385032 0.10822 0)
(-0.00106317 0.0981278 0)
(0.141061 0.0192444 0)
(-0.201235 -0.161517 0)
(0.258659 -0.148707 0)
(-0.244013 -0.0991781 0)
(-0.199399 0.0483926 0)
(-0.178515 -0.0545873 0)
(-0.230743 -0.017942 0)
(-0.211758 0.0159444 0)
(-0.15841 0.039179 0)
(-0.0894685 0.0498402 0)
(-0.0133557 0.046678 0)
(0.058038 0.0251586 0)
(0.103192 0.00782923 0)
(0.137229 -0.00755874 0)
(0.159611 -0.021117 0)
(0.172105 -0.0332167 0)
(0.177571 -0.0442363 0)
(0.178273 -0.0541915 0)
(0.175473 -0.062922 0)
(0.170241 -0.0710083 0)
(0.163329 -0.0790038 0)
(0.155279 -0.0875457 0)
(0.146229 -0.0976712 0)
(0.135352 -0.111274 0)
(0.119209 -0.131855 0)
(0.0782859 -0.175422 0)
(-0.0405905 -0.214763 0)
(-0.0740746 -0.194311 0)
(-0.0950822 -0.182099 0)
(-0.107768 -0.173246 0)
(-0.115169 -0.163962 0)
(-0.118629 -0.152138 0)
(-0.118167 -0.135835 0)
(-0.112816 -0.115789 0)
(-0.0996856 -0.0935683 0)
(-0.0753261 -0.0687261 0)
(-0.039501 -0.0407278 0)
(0.01946 -0.00634688 0)
(0.0780799 0.000456936 0)
(0.132258 -0.0245812 0)
(0.18802 -0.0806668 0)
(-0.141673 -0.160958 0)
)
;

boundaryField
{
    floor
    {
        type            noSlip;
    }
    ceiling
    {
        type            noSlip;
    }
    sWall
    {
        type            noSlip;
    }
    nWall
    {
        type            noSlip;
    }
    sideWalls
    {
        type            empty;
    }
    glass1
    {
        type            noSlip;
    }
    glass2
    {
        type            noSlip;
    }
    sun
    {
        type            noSlip;
    }
    heatsource1
    {
        type            noSlip;
    }
    heatsource2
    {
        type            noSlip;
    }
    Table_master
    {
        type            noSlip;
    }
    Table_slave
    {
        type            noSlip;
    }
    inlet
    {
        type            fixedValue;
        value           uniform (0.1 0 0);
    }
    outlet
    {
        type            zeroGradient;
    }
}


// ************************************************************************* //
