/*--------------------------------*- C++ -*----------------------------------*\
  =========                 |
  \\      /  F ield         | OpenFOAM: The Open Source CFD Toolbox
   \\    /   O peration     | Website:  https://openfoam.org
    \\  /    A nd           | Version:  6
     \\/     M anipulation  |
\*---------------------------------------------------------------------------*/
FoamFile
{
    version     2.0;
    format      ascii;
    class       volScalarField;
    location    "2400";
    object      nut;
}
// * * * * * * * * * * * * * * * * * * * * * * * * * * * * * * * * * * * * * //

dimensions      [0 2 -1 0 0 0 0];

internalField   nonuniform List<scalar> 
459
(
0.00113863
0.00124719
0.00127148
0.00133433
0.00139325
0.00144916
0.00150496
0.00155596
0.00159001
0.00160128
0.00158479
0.00153748
0.00145842
0.00135219
0.00123205
0.000511118
0.000616315
0.000692956
0.000691017
0.000667325
0.000635721
0.000595519
0.000555662
0.000519591
0.000487658
0.000459454
0.000434461
0.00041226
0.000392386
0.000374133
0.000356619
0.000338657
0.000328102
0.000301297
0.00154952
0.00388591
0.00376029
0.00439072
0.0050121
0.00562341
0.00613998
0.00654643
0.00690393
0.00718399
0.00735056
0.00736656
0.00717544
0.00663123
0.00513926
0.00126582
0.000735683
0.000542784
0.00113859
0.00158737
0.00191602
0.00209247
0.00208361
0.00165815
0.00142495
0.00125955
0.00113328
0.00103325
0.00095198
0.000882459
0.000817622
0.000754454
0.000697971
0.000647384
0.000773781
0.000401862
0.00188848
0.00531185
0.00469655
0.00587809
0.00647841
0.00692559
0.00727147
0.00756445
0.00787304
0.0081828
0.00845382
0.00864012
0.00868844
0.00850742
0.00783946
0.00593409
0.00129763
0.00104889
0.00153147
0.0019812
0.00239363
0.00267622
0.00260315
0.000848113
0.000747164
0.000666112
0.000600822
0.00054774
0.000504126
0.000468
0.000438111
0.000413935
0.00044649
0.000515911
0.000879389
0.000470922
0.00221119
0.00675243
0.00474881
0.00622833
0.00674744
0.0069419
0.00708473
0.007265
0.00753181
0.00786735
0.00821875
0.00852931
0.00873735
0.00876596
0.00855827
0.00781258
0.00532073
0.00152949
0.00189871
0.00246091
0.0030188
0.00346619
0.00373562
0.00348926
0.000954696
0.000866641
0.000803267
0.000754518
0.000712776
0.000675112
0.000638905
0.00060111
0.000557668
0.000523861
0.000542146
0.00104011
0.000521541
0.0025385
0.0085805
0.00525363
0.00605215
0.00670276
0.00677001
0.00674889
0.00688269
0.00712683
0.00748381
0.00788339
0.00824947
0.00849187
0.00855658
0.00843764
0.00810105
0.00735169
0.00610046
0.00566437
0.00552649
0.005482
0.00544571
0.00536788
0.00512791
0.00428408
0.00387396
0.00363084
0.00344149
0.00324553
0.00296725
0.00260886
0.00218725
0.00172957
0.00127997
0.000948811
0.00100696
0.00068551
0.000640515
0.000764384
0.000855931
0.00288408
0.0105635
0.00718507
0.00617188
0.00664614
0.0067564
0.00670936
0.00679393
0.00698535
0.00731509
0.00774158
0.00815064
0.00841415
0.00845351
0.0082797
0.00797925
0.00764757
0.00733707
0.00716255
0.00701431
0.00682889
0.00660904
0.00635989
0.00605757
0.00564017
0.00527509
0.00495882
0.00466371
0.0043713
0.00405683
0.00367192
0.00320338
0.00265482
0.00206202
0.00155073
0.00115036
0.000918492
0.000814466
0.00117559
0.000897698
0.00319083
0.0119099
0.00988539
0.00793293
0.00760205
0.00732211
0.00703033
0.0069141
0.00703762
0.00739047
0.00787645
0.00833309
0.00859754
0.00858035
0.00831444
0.00796129
0.00773031
0.0076941
0.00770231
0.00758359
0.00731781
0.0069587
0.00654591
0.0060998
0.00564335
0.00523385
0.00487186
0.00454533
0.00425163
0.00399538
0.00377519
0.00346222
0.00303381
0.0025208
0.0020494
0.00161716
0.001343
0.00127358
0.0012972
0.00102345
0.00324362
0.0103886
0.00938663
0.008675
0.00799245
0.00731441
0.00689978
0.00685391
0.00716165
0.00771836
0.00834647
0.00883544
0.00902061
0.00885153
0.00842723
0.00800217
0.00783084
0.00787376
0.00779087
0.00747062
0.0069839
0.00640951
0.00581338
0.00525532
0.00477855
0.00439216
0.00407772
0.00382247
0.00362537
0.00349061
0.00342116
0.00338346
0.00317681
0.00285152
0.00258567
0.00248147
0.00262787
0.00307057
0.00394106
0.00154917
0.00315188
0.00371579
0.00409159
0.0041844
0.00440139
0.00488243
0.00564158
0.00662394
0.00769871
0.00868654
0.00939817
0.0096776
0.00948802
0.00894546
0.00832141
0.00794381
0.00772161
0.00748126
0.00706922
0.00647421
0.00578041
0.00508629
0.00447388
0.00398433
0.00361267
0.00332929
0.00310559
0.00292392
0.00277329
0.002645
0.00253191
0.00243358
0.00236046
0.00231546
0.00231431
0.0023458
0.00234587
0.00225783
0.00209879
0.00143821
0.00144142
0.00367574
0.00668515
0.00865848
0.0099683
0.0107754
0.0111182
0.0110635
0.0106875
0.0100733
0.0092027
0.00831655
0.00764073
0.00718156
0.00673304
0.00617648
0.00552082
0.00483828
0.00419979
0.0036591
0.00324658
0.002949
0.0027349
0.00257701
0.00245829
0.00236968
0.00230716
0.0022702
0.00226126
0.00227891
0.00231378
0.00236443
0.00242575
0.00247916
0.00250034
0.00249095
0.00220801
0.00118839
0.00218743
0.00679408
0.00937867
0.0100678
0.0102847
0.0101431
0.0096717
0.00899007
0.00821362
0.00745047
0.00673074
0.00612882
0.00563732
0.00515531
0.00463403
0.00410752
0.00362041
0.00320353
0.00286796
0.00260901
0.00241226
0.00227114
0.0021739
0.00211248
0.00208215
0.00207885
0.00209733
0.00213403
0.00219474
0.00227506
0.00237175
0.00247888
0.00258392
0.00267277
0.00274545
0.00275678
0.00190487
0.00122698
0.00195988
0.00207904
0.00216488
0.00233562
0.00224457
0.00215946
0.00208912
0.00198673
0.00184829
0.00168207
0.00149694
0.00130905
0.00114106
0.00100654
0.000905681
0.000831609
0.000776915
0.000736363
0.000707024
0.000687396
0.000676409
0.000673174
0.000676553
0.000685004
0.000698105
0.00071569
0.000737816
0.000764787
0.000797297
0.000836114
0.000880839
0.00093195
0.0009898
0.00105476
0.00112655
0.00120905
0.00123153
0.00112185
0.00104546
0.00118599
)
;

boundaryField
{
    floor
    {
        type            nutkWallFunction;
        Cmu             0.09;
        kappa           0.41;
        E               9.8;
        value           nonuniform List<scalar> 
29
(
0.000147681
6.11366e-05
7.43857e-05
8.38631e-05
8.36249e-05
8.07083e-05
7.67982e-05
7.179e-05
6.6784e-05
6.22154e-05
5.81382e-05
5.45094e-05
5.12702e-05
4.83732e-05
4.5763e-05
4.33507e-05
4.10219e-05
3.86181e-05
3.71978e-05
3.35633e-05
3.35632e-05
4.70089e-05
5.59874e-05
6.24625e-05
0.000147681
6.11365e-05
6.5157e-05
0.000126453
0.000181428
)
;
    }
    ceiling
    {
        type            nutkWallFunction;
        Cmu             0.09;
        kappa           0.41;
        E               9.8;
        value           nonuniform List<scalar> 
43
(
0.000228834
0.00024178
0.00025106
0.000269547
0.000259827
0.000250674
0.000243073
0.00023195
0.000216806
0.000198455
0.000177778
0.000156502
0.000137188
0.000121488
0.00010956
0.000100702
9.41027e-05
8.9174e-05
8.55883e-05
8.31794e-05
8.18274e-05
8.14289e-05
8.18452e-05
8.28852e-05
8.44946e-05
8.66492e-05
8.93511e-05
9.26319e-05
9.65683e-05
0.000101244
0.0001066
0.000112681
0.000119519
0.000127142
0.000135505
0.000145042
0.000147628
0.00013496
0.000126055
0.000142387
0.000355895
0.000413988
0.000253284
)
;
    }
    sWall
    {
        type            nutkWallFunction;
        Cmu             0.09;
        kappa           0.41;
        E               9.8;
        value           uniform 0.000228899;
    }
    nWall
    {
        type            nutkWallFunction;
        Cmu             0.09;
        kappa           0.41;
        E               9.8;
        value           nonuniform List<scalar> 6(0.000103623 0.000108613 0.00012348 0.000142673 0.000147118 0.000142397);
    }
    sideWalls
    {
        type            empty;
    }
    glass1
    {
        type            nutkWallFunction;
        Cmu             0.09;
        kappa           0.41;
        E               9.8;
        value           nonuniform List<scalar> 9(0.000137034 0.00018393 0.00022156 0.000256705 0.000291795 0.000328329 0.00036038 0.000365874 0.000356359);
    }
    glass2
    {
        type            nutkWallFunction;
        Cmu             0.09;
        kappa           0.41;
        E               9.8;
        value           nonuniform List<scalar> 2(0.000183732 0.000171245);
    }
    sun
    {
        type            nutkWallFunction;
        Cmu             0.09;
        kappa           0.41;
        E               9.8;
        value           nonuniform List<scalar> 
14
(
0.000136907
0.00014942
0.000152204
0.000159379
0.000166072
0.000172392
0.000178675
0.000184395
0.000188201
0.00018946
0.000187618
0.000182324
0.000173436
0.00016141
)
;
    }
    heatsource1
    {
        type            nutkWallFunction;
        Cmu             0.09;
        kappa           0.41;
        E               9.8;
        value           nonuniform List<scalar> 3(7.73943e-05 9.25831e-05 0.00010362);
    }
    heatsource2
    {
        type            nutkWallFunction;
        Cmu             0.09;
        kappa           0.41;
        E               9.8;
        value           nonuniform List<scalar> 4(0.000151548 8.90925e-05 8.90925e-05 0.000155186);
    }
    Table_master
    {
        type            nutkWallFunction;
        Cmu             0.09;
        kappa           0.41;
        E               9.8;
        value           nonuniform List<scalar> 9(0.000102682 9.04906e-05 8.05608e-05 7.24567e-05 6.57891e-05 6.02516e-05 5.562e-05 5.17542e-05 4.86031e-05);
    }
    Table_slave
    {
        type            nutkWallFunction;
        Cmu             0.09;
        kappa           0.41;
        E               9.8;
        value           nonuniform List<scalar> 9(0.000115372 0.000104901 9.72886e-05 9.13848e-05 8.6294e-05 8.16697e-05 7.71953e-05 7.24917e-05 6.70408e-05);
    }
    inlet
    {
        type            calculated;
        value           uniform 0.000100623;
    }
    outlet
    {
        type            calculated;
        value           nonuniform List<scalar> 2(0.00195988 0.00207904);
    }
}


// ************************************************************************* //
