/*--------------------------------*- C++ -*----------------------------------*=========                 |
  \      /  F ield         | OpenFOAM: The Open Source CFD Toolbox
   \    /   O peration     | Website:  https://openfoam.org
    \  /    A nd           | Version:  6
     \/     M anipulation  |
\*---------------------------------------------------------------------------*/
FoamFile
{
    version     2.0;
    format      ascii;
    class       volScalarField;
    location    "2400";
    object      PMV;
}
// * * * * * * * * * * * * * * * * * * * * * * * * * * * * * * * * * * * * * //

dimensions      [0 0 0 0 0 0 0];

internalField   nonuniform List<scalar> 
459
(
1.6539552263912385
1.4380566002594481
1.4118561022850709
1.3883706248807692
1.3728922982303053
1.363999021329229
1.361299333344483
1.364654968229279
1.3744043565131645
1.3916496718960083
1.4173196593267756
1.4529666370616272
1.5001461274523717
1.5372956076253492
1.541595201871483
1.6060712260397574
1.5931783158389752
1.588402825449247
1.5898354915528636
1.5922232322519985
1.595088461171612
1.5969595963734755
1.592360923144503
1.5920691880563056
1.5928222077549177
1.594161516036915
1.5964159057500342
1.5987515234319467
1.6019767103663012
1.6070721911093437
1.6162063499066568
1.6227822232958464
1.6261241406027638
1.638058774359349
1.6160308168744135
1.4590720443362926
1.4504418504271919
1.4295905615835123
1.4168498577405848
1.4099523800363103
1.407632187196226
1.4096459523647558
1.4142239504751248
1.4225918032712295
1.4378113808448054
1.461417418376691
1.4956909941193728
1.5286960297114462
1.529173797534257
1.529173797534257
1.529173797534257
1.569694063790796
1.5836271550409349
1.5798064903483773
1.5812392529102006
1.5778234078729405
1.5735603502218245
1.5721336795875687
1.5726698456224395
1.5737719339867695
1.5745541388973645
1.5751786009910955
1.575885224668339
1.576737940588248
1.5777947416126596
1.5807402053871056
1.5883105599092133
1.6036837518074798
1.6094136113752187
1.6005389901671938
1.6584328928567904
1.4619867574651226
1.4863663622056538
1.4768892349728884
1.473861009162367
1.4735104358205429
1.4749938665186115
1.4758448658640957
1.4710810550809474
1.4641268054451395
1.4608695715147835
1.4664535787992752
1.4846630813564194
1.5156459792620247
1.5263071669819506
1.5286960297114462
1.5301293284430721
1.4795941097499081
1.5204918305508677
1.5330354948567086
1.5422452168675835
1.5521244909033785
1.558812098879106
1.5623671084937345
1.5704522697618417
1.5765705833904784
1.579193754156198
1.5803630154658517
1.5809639054711035
1.5814717868121246
1.5806455125479375
1.5765101529993586
1.578556360867434
1.5962059824444355
1.5869813674365976
1.5389433650330582
1.733768120686096
1.4675191010147979
1.514183469527348
1.5243467509375201
1.5423057762298111
1.5578062458122777
1.570225819408163
1.5651974050872155
1.5393726389521796
1.5030360184891811
1.4722464354378328
1.456308250522416
1.4595640794433036
1.4802751571713049
1.5117210522382512
1.529651563778687
1.5149572869921242
1.4746824591294965
1.47379617261406
1.5011654978808864
1.5268302619531384
1.548275060577589
1.5667707053085635
1.580709310556214
1.5860647035430573
1.5852397320374072
1.5852809723899681
1.5863738618668288
1.5885235175663475
1.5920383678983872
1.5987544680996026
1.6107232687817972
1.632854304883124
1.6262949309529762
1.6115851963186352
1.5675645644902387
1.4944812874637556
1.823578973894307
1.4881959342563529
1.5417129207262574
1.5707545015510498
1.618577794444901
1.6731261065129375
1.6972354539422678
1.6506142410240945
1.5790912108005373
1.5103765415218426
1.4607768247773467
1.4334953021222767
1.4300611825051839
1.4474442355048085
1.4764452513118056
1.5029352577994037
1.510097067975589
1.5070363924928372
1.5153908952538564
1.539705607482824
1.5695802825803875
1.5963630704306857
1.619282385433072
1.6342398261142999
1.642832279488354
1.6499921576783
1.6513444333812868
1.651499801912982
1.650777379017174
1.6496924613389237
1.6488493077137933
1.649934705794565
1.6513631792913444
1.6370839278249898
1.6108664459194617
1.5498552800969796
1.5436072672251304
1.6729006327938463
1.6590289695618168
1.4969350256795342
1.9136332848523483
1.5310982288468857
1.594220906286282
1.6242336401134183
1.6929414925257438
1.7215643988893103
1.7093702677548794
1.6300280108006087
1.5522626583253194
1.4813332809243163
1.4285986437718365
1.4015966854158775
1.401810637584528
1.425172914016249
1.462733294753755
1.5030721915315497
1.5340945320889354
1.55602465332186
1.5797572116510141
1.6103685616929913
1.6270789565879624
1.6418775945635578
1.6533332766599336
1.662878770899118
1.670514560474497
1.6771954273435352
1.6819672151729537
1.685307336468833
1.686738783991726
1.6857844878509927
1.6824443819453951
1.6776726159214561
1.670514560474497
1.6481153281443972
1.6135446213617757
1.54964952399449
1.5482351428245715
1.562500947588576
1.561194680572172
1.5735383739012918
2.0028763038663784
1.6261758356448837
1.7458459063141392
1.719886830413842
1.7164042935934651
1.6900366166082508
1.6364099378610082
1.56337363575083
1.4843575723063949
1.4159784302735596
1.372516393493181
1.3602626390064552
1.378314136990968
1.4202743966802245
1.4776388797871751
1.5393638723530885
1.5807616671595408
1.60463874709486
1.6256467296824713
1.6442642917155768
1.6600152103398866
1.673377840816188
1.6833987089114764
1.6910330069119353
1.6972354539422678
1.702006307519662
1.7053457694523866
1.7067769330267346
1.7067769330267346
1.7043916489189188
1.6986667338328008
1.6915101316668775
1.682921546525593
1.6714689958354114
1.63428404724911
1.5748841600991088
1.5519668600645982
1.5395106213907137
1.5139052762359078
1.6002747717878174
2.13513365207158
1.9455199239935568
1.9009657711877794
1.8014636013002878
1.742704783777852
1.66022161339555
1.556203557168983
1.4495408211674599
1.3616204079277308
1.308050198835944
1.2944216617931126
1.3204546723885708
1.376231926456963
1.4531225752298618
1.5432683780469865
1.5860150126311352
1.6184853330684756
1.6447416250739968
1.665265013462326
1.6810128750599314
1.693418608336141
1.7029604509367435
1.7101162340040665
1.715840485275862
1.7196564654411435
1.7225183513918192
1.7239492623179702
1.7239492623179702
1.7225183513918192
1.7196564654411435
1.7144094539626151
1.7067769330267346
1.698189642798453
1.6876930712867595
1.6767182365967048
1.6657422556334651
1.642184910632535
1.6286948277680584
1.5692472126320332
1.4873750892068145
2.332300275809109
2.2003425596415673
2.0348919826499463
1.8540821456455652
1.645797568047561
1.4303154221363596
1.260599418249822
1.1565325101552444
1.1225753713317435
1.1509794631659473
1.2258965680378697
1.3325973700880525
1.4548987575172694
1.539206554554336
1.5946109275733298
1.639013491454154
1.66765120311044
1.6872159287460182
1.7015292323889797
1.7129784016061724
1.7215643988893103
1.7249606343468769
1.7244329558799136
1.7237956821170455
1.7221577928515117
1.719434377864
1.715168640448635
1.7090902573340716
1.7014405666014056
1.6922987121015611
1.6814957438644746
1.6695813092272864
1.6587634377856266
1.6456888149969977
1.6314513410230786
1.6188271341289444
1.609440802582781
1.602632623349972
1.589686654256177
1.5612870115067814
-2.9751284994330627
-1.8364910178068974
-1.1393046118624404
-0.39287542999911423
0.16741152063105272
0.6012833189285905
0.9524434459813036
1.2150139266161926
1.3781292242516703
1.5033721211776347
1.5778961155384803
1.629465962302346
1.65090428715875
1.6679668651653823
1.6807480746588943
1.6898720296309875
1.6959292812495175
1.6999307035162625
1.7012388440922586
1.7014320027321685
1.7002347054728917
1.698049787577461
1.6951531686036745
1.6913670050958318
1.686621899921975
1.6819804837120769
1.6767082840436742
1.672114733417171
1.6685637267908127
1.6656185424032908
1.6638003453390318
1.6630910240986168
1.6629684909372704
1.6645491225188118
1.673466121171487
1.7039713639670935
1.8159566513751892
1.6614468246747496
-2.469740324452887
-1.0030579741586634
0.04108884464066455
0.5736766312018837
0.8993767874629996
1.1022668294143436
1.2556161463745659
1.3745376150443536
1.4668354554935705
1.5356989386506985
1.5823275791392637
1.6152129389007344
1.638851028026836
1.6555488583805307
1.667065213306076
1.6751204737194318
1.680677009072632
1.684368377124792
1.6864086057062835
1.6875522213165821
1.6881558815427764
1.6885223098857434
1.688110419853477
1.6869038506344824
1.6859035873625792
1.684726245050281
1.6835920061946925
1.682907242716521
1.6836977456511437
1.686325165865464
1.69268130879851
1.7032269647036355
1.7157827480188343
1.7273268430742665
1.7417430492638262
1.802614589234971
1.701052788198841
1.788582309246104
-0.8571406020699566
-0.9971281701215228
-0.8765515292673427
0.3729532955134846
0.8868049284281695
1.1024123856346626
1.235970077575045
1.3385595006270197
1.4214708527246571
1.4888266037166797
1.543695316169299
1.5856439541311496
1.6162670842348597
1.6376201793576837
1.6516366002929395
1.6600002634239317
1.664724083463758
1.6669607977339032
1.6673096689427827
1.667281757279292
1.6667322244390463
1.6668502919269728
1.6670772209338403
1.66717823648339
1.668138975615159
1.668964862299776
1.6707513310248927
1.6726989280114741
1.6756538244977883
1.6805179039713078
1.6868627067410211
1.6980619604214389
1.7168188040343269
1.7505372298785844
1.78116744700401
1.7859339532774468
1.7907001904003697
1.7166295846129629
1.720954195490838
1.6237243946001243
)
;

boundaryField
{
    ".*"
    {
        type            zeroGradient;
    }
}


// ************************************************************************* //
