/*--------------------------------*- C++ -*----------------------------------*\
  =========                 |
  \\      /  F ield         | OpenFOAM: The Open Source CFD Toolbox
   \\    /   O peration     | Website:  https://openfoam.org
    \\  /    A nd           | Version:  6
     \\/     M anipulation  |
\*---------------------------------------------------------------------------*/
FoamFile
{
    version     2.0;
    format      ascii;
    class       volScalarField;
    location    "2200";
    object      epsilon;
}
// * * * * * * * * * * * * * * * * * * * * * * * * * * * * * * * * * * * * * //

dimensions      [0 2 -3 0 0 0 0];

internalField   nonuniform List<scalar> 
459
(
0.000523046
0.000687155
0.00072808
0.000841491
0.000958035
0.00107814
0.00120767
0.00133485
0.00142476
0.00145574
0.00141166
0.00128918
0.00110008
0.000875776
0.000660739
4.84175e-05
8.5279e-05
0.000121542
0.000121065
0.000109689
9.5378e-05
7.88134e-05
6.43096e-05
5.2779e-05
4.37726e-05
3.67059e-05
3.11035e-05
2.66281e-05
2.29947e-05
1.99544e-05
1.7293e-05
1.48091e-05
1.33911e-05
1.0304e-05
0.00131733
0.00186247
0.000651209
0.000634007
0.000670315
0.000727956
0.000810499
0.000910936
0.000999126
0.00104737
0.00103657
0.000963391
0.000837597
0.000686787
0.000571543
0.000716909
0.000143944
5.79041e-05
0.000136828
0.000146275
0.000133976
0.000114655
9.64322e-05
8.72305e-05
7.07076e-05
5.60613e-05
4.44448e-05
3.54793e-05
2.8592e-05
2.33048e-05
1.92502e-05
1.62564e-05
1.44258e-05
1.36594e-05
3.53293e-05
2.39913e-05
0.00238488
0.00449442
0.000816881
0.000614935
0.000653056
0.000744935
0.000875948
0.00102751
0.00115358
0.00121997
0.00121208
0.00113455
0.000999566
0.000840323
0.000695286
0.000628128
0.000775978
0.000417847
0.000305891
0.000233804
0.000182314
0.000144588
0.000122389
0.000225016
0.000154573
0.000109984
8.10075e-05
6.15783e-05
4.81462e-05
3.86192e-05
3.17569e-05
2.68491e-05
2.03762e-05
1.71914e-05
6.7434e-05
3.82021e-05
0.00382904
0.00922161
0.00130769
0.000644773
0.000663928
0.000801366
0.00101362
0.00123823
0.00139353
0.00145715
0.00143127
0.0013304
0.00116311
0.000972538
0.000801873
0.000688038
0.000669974
0.00127176
0.000723061
0.000437127
0.000294091
0.000212804
0.000162591
0.000139566
0.000320344
0.000241763
0.000194341
0.000162499
0.000138035
0.000117907
0.000100442
8.40505e-05
6.74133e-05
3.95391e-05
2.64067e-05
0.000115846
5.17682e-05
0.00579452
0.0162653
0.00259457
0.000821356
0.000741595
0.000945191
0.00132895
0.00162262
0.00176441
0.00178715
0.00171768
0.00156958
0.00135656
0.00111034
0.000870909
0.000673051
0.000537558
0.000483726
0.000395106
0.000312317
0.000245435
0.000193845
0.000155211
0.000129666
0.00012522
0.000116332
0.00010741
9.84929e-05
8.90832e-05
7.93256e-05
6.98117e-05
6.09e-05
5.27034e-05
4.16133e-05
3.21139e-05
8.15039e-05
5.82806e-05
9.32386e-05
0.000159159
0.000223851
0.00849852
0.0239686
0.00579371
0.00169399
0.00126704
0.00162187
0.00213183
0.00232262
0.00233886
0.00226379
0.0021212
0.00190413
0.00161579
0.00128586
0.00096274
0.000693882
0.000505978
0.000396919
0.000327261
0.000270104
0.000219353
0.000177279
0.000145215
0.000123861
0.000113649
0.000109176
0.000106218
0.000102432
9.64926e-05
8.74142e-05
7.58564e-05
6.4306e-05
5.39254e-05
4.46857e-05
3.92755e-05
5.83366e-05
6.00909e-05
7.22926e-05
0.000297089
0.000258742
0.0115098
0.0284988
0.0116853
0.00537764
0.00401541
0.00400666
0.00379392
0.00350069
0.00321507
0.00295421
0.00268202
0.00235031
0.0019447
0.00149735
0.00106947
0.000724835
0.000493942
0.000362652
0.000288187
0.000234853
0.00019069
0.000156172
0.000132294
0.000118923
0.000114816
0.000116291
0.000119537
0.000122544
0.000123858
0.000121404
0.000110848
9.74513e-05
8.45161e-05
7.35216e-05
6.98581e-05
8.18776e-05
0.000107349
0.000181961
0.000425049
0.000399675
0.0120906
0.0298413
0.0171998
0.0123005
0.00966723
0.00753562
0.00600695
0.00499249
0.00433354
0.00386195
0.00342409
0.00291507
0.00232088
0.00169722
0.00112715
0.000699791
0.000439895
0.000303492
0.000233927
0.000189096
0.000156066
0.000133611
0.000121038
0.000117064
0.000119946
0.000127545
0.000138271
0.000151704
0.000167921
0.000186675
0.000206363
0.000215367
0.000226611
0.000251341
0.000303109
0.000471662
0.00091738
0.00185052
0.00542552
0.00145503
0.0110929
0.0181758
0.014603
0.0111856
0.00879151
0.00729164
0.0063943
0.00585798
0.0054655
0.00502038
0.00438658
0.00353209
0.00258724
0.00169818
0.000959537
0.000517531
0.000320846
0.000227897
0.000177969
0.000146486
0.000126114
0.000114702
0.000110783
0.000112946
0.00012
0.000131225
0.00014668
0.000167336
0.000194991
0.000232295
0.000282863
0.000352022
0.000447574
0.000594567
0.000810115
0.00109984
0.00142412
0.00169289
0.00188775
0.00113345
0.00373727
0.00659013
0.0084426
0.00892443
0.00890673
0.00843295
0.0074362
0.00603164
0.00442865
0.00277847
0.00166965
0.000966602
0.000549301
0.000333525
0.000229967
0.000177275
0.000147091
0.000127859
0.000115686
0.000109244
0.000107592
0.000109848
0.00011547
0.000124358
0.000136903
0.000154096
0.000177691
0.000210554
0.000257195
0.000323679
0.000417133
0.000546653
0.000714346
0.000899499
0.00104472
0.00107725
0.000943223
0.000592894
0.00372438
0.00849112
0.00848268
0.00702888
0.00608194
0.00509676
0.00401885
0.00295591
0.00201073
0.00125511
0.000763976
0.000474894
0.000316912
0.000235695
0.000193736
0.00016976
0.000153845
0.000142057
0.000133041
0.000126599
0.000123072
0.000122508
0.000125074
0.0001312
0.000141625
0.00015745
0.000180283
0.000212485
0.000257433
0.000319785
0.000405752
0.000521422
0.000666917
0.00083229
0.000954739
0.00106034
0.000810564
0.000615324
0.00267617
0.0031936
0.00360559
0.00452444
0.00401287
0.00357158
0.00323429
0.00278339
0.00224331
0.00169304
0.00119518
0.000800969
0.000531687
0.000365557
0.000266444
0.000206125
0.000167905
0.000142982
0.000126941
0.000117481
0.000113224
0.000113111
0.00011596
0.000121476
0.000129626
0.00014061
0.000154856
0.000173088
0.000196521
0.000226907
0.000265201
0.00031354
0.000374555
0.000451678
0.000548521
0.00069715
0.000743299
0.000688964
0.000559062
0.000438629
)
;

boundaryField
{
    floor
    {
        Cmu             0.09;
        kappa           0.41;
        E               9.8;
        type            epsilonWallFunction;
        value           nonuniform List<scalar> 
29
(
0.000660739
4.84175e-05
8.5279e-05
0.000121542
0.000121065
0.000109689
9.5378e-05
7.88134e-05
6.43096e-05
5.2779e-05
4.37726e-05
3.67059e-05
3.11035e-05
2.66281e-05
2.29947e-05
1.99544e-05
1.7293e-05
1.48091e-05
1.33911e-05
1.0304e-05
1.0304e-05
2.39913e-05
3.82021e-05
5.17682e-05
0.000660739
4.84175e-05
5.79041e-05
0.000417847
0.00127176
)
;
    }
    ceiling
    {
        Cmu             0.09;
        kappa           0.41;
        E               9.8;
        type            epsilonWallFunction;
        value           nonuniform List<scalar> 
43
(
0.00267617
0.0031936
0.00360559
0.00452444
0.00401287
0.00357158
0.00323429
0.00278339
0.00224331
0.00169304
0.00119518
0.000800969
0.000531687
0.000365557
0.000266444
0.000206125
0.000167905
0.000142982
0.000126941
0.000117481
0.000113224
0.000113111
0.00011596
0.000121476
0.000129626
0.00014061
0.000154856
0.000173088
0.000196521
0.000226907
0.000265201
0.00031354
0.000374555
0.000451678
0.000548521
0.00069715
0.000743299
0.000688964
0.000559062
0.000438629
0.0110929
0.0181758
0.00372438
)
;
    }
    sWall
    {
        Cmu             0.09;
        kappa           0.41;
        E               9.8;
        type            epsilonWallFunction;
        value           uniform 0.00267617;
    }
    nWall
    {
        Cmu             0.09;
        kappa           0.41;
        E               9.8;
        type            epsilonWallFunction;
        value           nonuniform List<scalar> 6(0.000223851 0.000258742 0.000399675 0.000592894 0.000615324 0.000438629);
    }
    sideWalls
    {
        type            empty;
    }
    glass1
    {
        Cmu             0.09;
        kappa           0.41;
        E               9.8;
        type            epsilonWallFunction;
        value           nonuniform List<scalar> 9(0.000523046 0.00131733 0.00238488 0.00382904 0.00579452 0.00849852 0.0115098 0.0120906 0.0110929);
    }
    glass2
    {
        Cmu             0.09;
        kappa           0.41;
        E               9.8;
        type            epsilonWallFunction;
        value           nonuniform List<scalar> 2(0.00145503 0.00113345);
    }
    sun
    {
        Cmu             0.09;
        kappa           0.41;
        E               9.8;
        type            epsilonWallFunction;
        value           nonuniform List<scalar> 
14
(
0.000523046
0.000687155
0.00072808
0.000841491
0.000958035
0.00107814
0.00120767
0.00133485
0.00142476
0.00145574
0.00141166
0.00128918
0.00110008
0.000875776
)
;
    }
    heatsource1
    {
        Cmu             0.09;
        kappa           0.41;
        E               9.8;
        type            epsilonWallFunction;
        value           nonuniform List<scalar> 3(9.32386e-05 0.000159159 0.000223851);
    }
    heatsource2
    {
        Cmu             0.09;
        kappa           0.41;
        E               9.8;
        type            epsilonWallFunction;
        value           nonuniform List<scalar> 4(0.000716909 0.000143944 0.000143944 0.000775978);
    }
    Table_master
    {
        Cmu             0.09;
        kappa           0.41;
        E               9.8;
        type            epsilonWallFunction;
        value           nonuniform List<scalar> 9(0.000225016 0.000154573 0.000109984 8.10075e-05 6.15783e-05 4.81462e-05 3.86192e-05 3.17569e-05 2.68491e-05);
    }
    Table_slave
    {
        Cmu             0.09;
        kappa           0.41;
        E               9.8;
        type            epsilonWallFunction;
        value           nonuniform List<scalar> 9(0.000320344 0.000241763 0.000194341 0.000162499 0.000138035 0.000117907 0.000100442 8.40505e-05 6.74133e-05);
    }
    inlet
    {
        type            turbulentMixingLengthDissipationRateInlet;
        mixingLength    0.01;
        phi             phi;
        k               k;
        value           uniform 0.000101881;
    }
    outlet
    {
        type            zeroGradient;
    }
}


// ************************************************************************* //
