/*--------------------------------*- C++ -*----------------------------------*\
  =========                 |
  \\      /  F ield         | OpenFOAM: The Open Source CFD Toolbox
   \\    /   O peration     | Website:  https://openfoam.org
    \\  /    A nd           | Version:  6
     \\/     M anipulation  |
\*---------------------------------------------------------------------------*/
FoamFile
{
    version     2.0;
    format      ascii;
    class       volScalarField;
    location    "2200";
    object      nut;
}
// * * * * * * * * * * * * * * * * * * * * * * * * * * * * * * * * * * * * * //

dimensions      [0 2 -1 0 0 0 0];

internalField   nonuniform List<scalar> 
459
(
0.00113909
0.00124757
0.00127186
0.00133473
0.00139371
0.00144967
0.00150555
0.00155664
0.00159084
0.00160229
0.00158595
0.00153868
0.00145944
0.00135262
0.00123137
0.000515283
0.00062229
0.000700305
0.000699388
0.000676757
0.000645944
0.000606148
0.000566418
0.000530313
0.000498248
0.000469848
0.000444613
0.000422174
0.000402026
0.000383464
0.000365596
0.00034718
0.000335726
0.000307643
0.0015498
0.0038814
0.00375098
0.00437763
0.00499651
0.00560602
0.00612212
0.0065299
0.00689033
0.0071748
0.00734693
0.00736949
0.00718593
0.00665052
0.00516884
0.00126532
0.000740929
0.000546951
0.00115241
0.00160878
0.0019435
0.00212375
0.00211585
0.00168445
0.00144905
0.00128221
0.00115486
0.00105404
0.000972207
0.000901613
0.000835718
0.00077148
0.000714214
0.000663439
0.000789946
0.000407752
0.00188886
0.00530748
0.00468281
0.00585206
0.00644744
0.00689316
0.00724022
0.0075369
0.00785077
0.00816704
0.00844549
0.00864027
0.00869815
0.00852559
0.00786198
0.00594797
0.00129916
0.00105694
0.00154956
0.00201117
0.00243374
0.00272307
0.00264766
0.000859904
0.000758735
0.000677363
0.000611721
0.000558283
0.000514319
0.000477873
0.000447704
0.000423339
0.000457787
0.000530589
0.00089645
0.000476147
0.00221178
0.00674994
0.00473687
0.00619651
0.00670646
0.00690042
0.00704765
0.00723494
0.0075085
0.00785103
0.00820954
0.0085281
0.00874565
0.00878276
0.00858084
0.00783272
0.00532083
0.00153172
0.0019114
0.0024892
0.00306176
0.00351967
0.00379461
0.00354198
0.000967351
0.000880728
0.000818904
0.000771486
0.000730647
0.000693253
0.000657178
0.000619287
0.000575387
0.000539373
0.000556633
0.00105131
0.000526906
0.00253932
0.00857993
0.00524514
0.00602451
0.0066594
0.00672512
0.00671393
0.0068571
0.00710782
0.00747121
0.00787707
0.00825001
0.00849973
0.00857209
0.00846087
0.00813014
0.00738174
0.00613235
0.0057055
0.00557485
0.00553375
0.00549798
0.00542028
0.00518173
0.00434047
0.00393999
0.00370679
0.00352541
0.00333462
0.00305877
0.0026952
0.002263
0.00179086
0.00132408
0.000978704
0.00103069
0.000691575
0.000641077
0.000766166
0.000858416
0.00288509
0.0105641
0.00717918
0.00615521
0.00661543
0.00672284
0.00668615
0.00677717
0.00697332
0.00730764
0.00773948
0.00815463
0.00842437
0.00847056
0.00830537
0.0080163
0.00769736
0.00739687
0.00722568
0.00707104
0.00687345
0.00664164
0.00638598
0.00608651
0.00568395
0.00534009
0.0050463
0.00477237
0.00449826
0.00419756
0.0038143
0.00333441
0.00276214
0.00213825
0.00159612
0.00118719
0.000928575
0.000818364
0.00118487
0.000900881
0.00319204
0.0119114
0.00988154
0.00792374
0.00758782
0.00731082
0.0070213
0.00690697
0.00703257
0.00738855
0.00787913
0.00834166
0.00861234
0.00860217
0.00834723
0.00801139
0.00780156
0.00777606
0.00777238
0.00762645
0.00733172
0.00695157
0.0065316
0.00609598
0.00566706
0.0052933
0.00496798
0.00467514
0.00440983
0.00417539
0.00396809
0.00363953
0.00317677
0.00262297
0.00210522
0.00164129
0.00133671
0.00127804
0.00134298
0.00104139
0.00324485
0.0103921
0.00938782
0.00867793
0.00799591
0.00731709
0.00690102
0.00685407
0.00716182
0.00772054
0.00835311
0.00884865
0.00904124
0.00888128
0.00847424
0.00807611
0.00792879
0.00796201
0.00783585
0.00747162
0.00695358
0.00636763
0.00578281
0.00525621
0.00482183
0.00447876
0.00420246
0.00397744
0.00380189
0.0036816
0.00362293
0.00358599
0.00331178
0.00294322
0.00263197
0.00249985
0.00267493
0.00325491
0.00408666
0.00160203
0.00315302
0.00371715
0.0040936
0.00418623
0.00440254
0.00488247
0.00564037
0.00662206
0.00769752
0.00868855
0.00940663
0.00969607
0.00951765
0.00899183
0.00840563
0.00805616
0.00782724
0.00754676
0.00708023
0.00644444
0.00573547
0.00505421
0.00447561
0.00402786
0.0036954
0.0034433
0.00324098
0.00307021
0.00291994
0.00278178
0.00264948
0.0025277
0.00243189
0.00236929
0.00235906
0.00238765
0.00238268
0.00228025
0.00211757
0.00147405
0.00144482
0.00368275
0.00669023
0.00866202
0.00997055
0.0107773
0.0111215
0.0110731
0.0107115
0.0101266
0.00927894
0.00841837
0.00776584
0.00730068
0.00681617
0.00621616
0.00552918
0.00482836
0.00418418
0.00366197
0.00327775
0.00300527
0.0028092
0.00266192
0.00254674
0.00245537
0.00238491
0.00233649
0.00231534
0.00231985
0.00233885
0.00236932
0.00239989
0.00239887
0.00231878
0.0021434
0.00188437
0.00118769
0.00219144
0.00679641
0.00938119
0.0100702
0.0102892
0.0101517
0.00968691
0.00901727
0.00825922
0.00751985
0.00681803
0.00622606
0.00572934
0.00522536
0.00467731
0.00412697
0.00362075
0.0031894
0.00284532
0.00258117
0.0023923
0.00226157
0.00217509
0.00212434
0.00210397
0.00210918
0.00213382
0.00217272
0.00223362
0.00231156
0.00240283
0.00249994
0.00258634
0.00264741
0.00263412
0.00263351
0.00237862
0.00120249
0.00196283
0.00208196
0.00216789
0.0023383
0.00224662
0.00216105
0.00209076
0.0019887
0.00185072
0.001685
0.00150034
0.00131296
0.00114533
0.00101087
0.000909733
0.000835133
0.000779949
0.000739275
0.000710525
0.000692418
0.00068395
0.000683722
0.000689416
0.000700178
0.0007155
0.000735164
0.000759197
0.000787894
0.000821955
0.000862305
0.000908316
0.000960453
0.0010191
0.00108473
0.00115729
0.00125359
0.00128066
0.00124866
0.00116466
0.00107418
)
;

boundaryField
{
    floor
    {
        type            nutkWallFunction;
        Cmu             0.09;
        kappa           0.41;
        E               9.8;
        value           nonuniform List<scalar> 
29
(
0.000147603
6.16673e-05
7.51294e-05
8.47651e-05
8.46526e-05
8.18709e-05
7.80655e-05
7.3118e-05
6.81392e-05
6.35774e-05
5.9494e-05
5.58498e-05
5.25887e-05
4.96694e-05
4.70312e-05
4.45858e-05
4.22175e-05
3.97608e-05
3.82243e-05
3.44275e-05
3.44274e-05
4.77821e-05
5.66597e-05
6.31442e-05
0.000147603
6.16672e-05
6.56839e-05
0.000127395
0.000181679
)
;
    }
    ceiling
    {
        type            nutkWallFunction;
        Cmu             0.09;
        kappa           0.41;
        E               9.8;
        value           nonuniform List<scalar> 
43
(
0.000229155
0.000242096
0.000251385
0.000269833
0.000260048
0.000250846
0.000243251
0.000232165
0.000217073
0.00019878
0.000178161
0.000156947
0.000137682
0.000121998
0.000110042
0.000101126
9.44701e-05
8.9529e-05
8.60171e-05
8.37965e-05
8.27557e-05
8.27276e-05
8.34278e-05
8.4749e-05
8.66259e-05
8.90279e-05
9.19531e-05
9.54317e-05
9.95414e-05
0.000104384
0.000109874
0.000116056
0.000122964
0.000130641
0.000139068
0.00015016
0.000153261
0.000149595
0.000139921
0.000129412
0.000356013
0.000414126
0.000253717
)
;
    }
    sWall
    {
        type            nutkWallFunction;
        Cmu             0.09;
        kappa           0.41;
        E               9.8;
        value           uniform 0.00022922;
    }
    nWall
    {
        type            nutkWallFunction;
        Cmu             0.09;
        kappa           0.41;
        E               9.8;
        value           nonuniform List<scalar> 6(0.00010392 0.000108992 0.000125583 0.000142593 0.000144298 0.00012942);
    }
    sideWalls
    {
        type            empty;
    }
    glass1
    {
        type            nutkWallFunction;
        Cmu             0.09;
        kappa           0.41;
        E               9.8;
        value           nonuniform List<scalar> 9(0.000137088 0.000183962 0.000221602 0.000256769 0.000291882 0.000328436 0.000360505 0.000366001 0.000356477);
    }
    glass2
    {
        type            nutkWallFunction;
        Cmu             0.09;
        kappa           0.41;
        E               9.8;
        value           nonuniform List<scalar> 2(0.000189646 0.00017529);
    }
    sun
    {
        type            nutkWallFunction;
        Cmu             0.09;
        kappa           0.41;
        E               9.8;
        value           nonuniform List<scalar> 
14
(
0.00013696
0.000149463
0.000152247
0.000159425
0.000166123
0.00017245
0.000178741
0.000184471
0.000188294
0.000189571
0.000187747
0.000182458
0.000173551
0.000161459
)
;
    }
    heatsource1
    {
        type            nutkWallFunction;
        Cmu             0.09;
        kappa           0.41;
        E               9.8;
        value           nonuniform List<scalar> 3(7.74641e-05 9.27994e-05 0.000103917);
    }
    heatsource2
    {
        type            nutkWallFunction;
        Cmu             0.09;
        kappa           0.41;
        E               9.8;
        value           nonuniform List<scalar> 4(0.000151491 8.97317e-05 8.97317e-05 0.000155361);
    }
    Table_master
    {
        type            nutkWallFunction;
        Cmu             0.09;
        kappa           0.41;
        E               9.8;
        value           nonuniform List<scalar> 9(0.000104095 9.18974e-05 8.19475e-05 7.38167e-05 6.71195e-05 6.1551e-05 5.68902e-05 5.29986e-05 4.98316e-05);
    }
    Table_slave
    {
        type            nutkWallFunction;
        Cmu             0.09;
        kappa           0.41;
        E               9.8;
        value           nonuniform List<scalar> 9(0.000116867 0.000106584 9.91732e-05 9.34448e-05 8.84777e-05 8.39007e-05 7.94572e-05 7.47582e-05 6.92702e-05);
    }
    inlet
    {
        type            calculated;
        value           uniform 0.000100623;
    }
    outlet
    {
        type            calculated;
        value           nonuniform List<scalar> 2(0.00196283 0.00208196);
    }
}


// ************************************************************************* //
