/*--------------------------------*- C++ -*----------------------------------*\
  =========                 |
  \\      /  F ield         | OpenFOAM: The Open Source CFD Toolbox
   \\    /   O peration     | Website:  https://openfoam.org
    \\  /    A nd           | Version:  6
     \\/     M anipulation  |
\*---------------------------------------------------------------------------*/
FoamFile
{
    version     2.0;
    format      ascii;
    class       surfaceScalarField;
    location    "2300";
    object      phi;
}
// * * * * * * * * * * * * * * * * * * * * * * * * * * * * * * * * * * * * * //

dimensions      [1 0 -1 0 0 0 0];

internalField   nonuniform List<scalar> 
852
(
-0.00304046
0.00310023
-0.00412227
0.00108181
-0.00492561
0.000803345
-0.00553857
0.000612952
-0.00592946
0.000390896
-0.00607462
0.000145161
-0.00595312
-0.000121496
-0.00555459
-0.000398535
-0.00490515
-0.000649438
-0.00406997
-0.000835175
-0.00313961
-0.00093036
-0.00221009
-0.00092952
-0.0013663
-0.000843797
-0.00064715
-0.000719146
-0.000645093
-0.000804874
0.000808556
-0.000461612
-0.000343261
0.000215182
-0.000676794
0.000752375
-0.000537192
0.00111307
-0.000360697
0.00133964
-0.000226564
0.00146281
-0.000123167
0.00152293
-6.01217e-05
0.00155631
-3.33826e-05
0.00157651
-2.01997e-05
0.0015876
-1.10884e-05
0.00159099
-3.39263e-06
0.00158484
6.15303e-06
0.00156041
2.44297e-05
0.00149416
6.62482e-05
0.00134669
0.00014747
0.00110506
0.000241633
0.000807249
0.000297814
0.000812227
-0.00216407
0.00542488
-0.00320947
0.0021272
-0.00403081
0.00162468
-0.00463226
0.0012144
-0.00501574
0.00077438
-0.00516619
0.000295613
-0.0050601
-0.000227595
-0.00469351
-0.000765125
-0.00410473
-0.00123821
-0.0033654
-0.00157451
-0.002562
-0.00173376
-0.0017747
-0.00171682
-0.001075
-0.00154349
-0.000539531
-0.00125462
-0.000311756
-0.000872867
5.00216e-05
-0.000361829
4.99705e-05
0.000380779
0.000438369
0.000821115
-0.000783597
0.00109223
-0.000947905
0.00132662
-0.000771588
0.00150638
-0.000540457
0.00161503
-0.000335214
0.00163262
-0.000140757
0.00163694
-6.44417e-05
0.0016422
-3.86413e-05
0.00164659
-2.4586e-05
0.00164945
-1.39491e-05
0.00165081
-4.74985e-06
0.00164978
7.18077e-06
0.00164256
3.16518e-05
0.00159851
0.000110299
0.00141103
0.000334955
0.00109053
0.000562128
0.000693753
0.000694591
0.00151862
-0.00151004
0.00718026
-0.00240795
0.00302511
-0.00313117
0.00234791
-0.0036408
0.00172403
-0.00396819
0.00110178
-0.00409246
0.000419883
-0.00397003
-0.000350031
-0.00360027
-0.00113488
-0.00304517
-0.00179331
-0.00238531
-0.00223437
-0.00170037
-0.0024187
-0.00104793
-0.00236926
-0.000475222
-0.0021162
-1.85958e-05
-0.00171124
0.000283889
-0.00117535
0.000439075
-0.000517014
0.000489046
0.00161287
-0.00116323
0.00184448
-0.0010152
0.00180344
-0.000906866
0.00179549
-0.000763639
0.00182045
-0.000565417
0.0018448
-0.000359562
0.0017042
0.00163991
0.00160142
0.00157699
0.0015632
0.0015586
0.00156594
0.00159774
0.0017082
0.00140035
0.000642797
0.00103261
0.000929871
0.000584391
0.00114281
0.0021221
-0.00104967
0.00854742
-0.00175754
0.00373298
-0.00222819
0.00281856
-0.0025517
0.00204755
-0.00274884
0.00129892
-0.00277828
0.00044932
-0.00257529
-0.000553023
-0.00217098
-0.00153919
-0.00165795
-0.00230634
-0.00111216
-0.00278016
-0.000591286
-0.00293957
-0.000120178
-0.00284037
0.000287426
-0.0025238
0.000630216
-0.00205403
0.000943798
-0.00148893
0.00131629
-0.000889501
0.00217945
-0.000374121
0.00263794
-0.000448281
0.00220821
-0.000733502
0.00206394
-0.000870936
0.00193981
-0.00078273
0.00183393
-0.00065776
0.00177608
-0.000507564
0.00174818
-0.000331664
0.00189104
-0.000143011
0.00198153
-9.06475e-05
0.00205282
-7.14455e-05
0.00210454
-5.18682e-05
0.00212049
-1.6101e-05
0.00207842
4.1914e-05
0.00195356
0.000124711
0.00171334
0.00024006
0.00130102
0.000412169
0.00114955
0.000794272
0.000824285
0.00125513
0.000332458
0.00163464
0.00247952
-0.000731912
0.00965813
-0.00126573
0.0042668
-0.00134867
0.0029015
-0.00138379
0.00208267
-0.00136433
0.00127946
-0.00118175
0.000266737
-0.000814119
-0.000920655
-0.000376853
-0.00197646
4.23486e-05
-0.00272554
0.000398383
-0.00313619
0.000680668
-0.00322185
0.000894729
-0.00305443
0.00106286
-0.00269194
0.00121017
-0.00220133
0.00136988
-0.00164865
0.00158912
-0.00110874
0.00190823
-0.00069323
0.00202873
-0.000568785
0.00192865
-0.000633416
0.00173735
-0.000679639
0.00157576
-0.000621139
0.00144396
-0.000525962
0.00135457
-0.000418171
0.00132259
-0.000299679
0.00137621
-0.000196634
0.00143742
-0.000151859
0.00150145
-0.000135474
0.00156316
-0.00011358
0.00160956
-6.24934e-05
0.00161925
3.22247e-05
0.00157208
0.000171881
0.00145741
0.000354726
0.00127773
0.000591847
0.00111784
0.000954165
0.000941786
0.00143119
0.000541267
0.00203516
0.000415456
0.00260533
-0.00111631
0.00153156
-0.00157952
0.000463
-0.00152552
-0.000635008
0.0107237
-0.000993468
0.00462526
-0.000533875
0.00244191
-9.84461e-05
0.00164724
0.000292591
0.000888423
0.000803864
-0.000244536
0.00132904
-0.00144583
0.00171271
-0.00236014
0.00193319
-0.00294601
0.00201145
-0.00321445
0.00198893
-0.00319934
0.00189514
-0.00296063
0.00176763
-0.00256442
0.00164342
-0.00207712
0.00155373
-0.00155896
0.00152023
-0.00107524
0.00153263
-0.000705632
0.00148793
-0.000524085
0.00134495
-0.00049043
0.00114822
-0.000482912
0.000973274
-0.000446191
0.00083924
-0.000391928
0.000753889
-0.000332819
0.00072706
-0.000272849
0.00075765
-0.000227223
0.000818025
-0.000212233
0.000894192
-0.000211641
0.000979754
-0.000199141
0.00106754
-0.000150283
0.00114116
-4.13946e-05
0.00118213
0.000130913
0.00119173
0.00034513
0.00117822
0.000605354
0.00119179
0.000940599
0.00128584
0.00133714
0.00146777
0.00185323
0.00195974
0.00211336
0.00224039
0.00125091
0.00185038
0.000853016
0.00038955
-0.000661936
0.0118634
-0.00051408
0.0044774
0.000719181
0.00120865
0.00164404
0.000722381
0.00250161
3.08565e-05
0.00329323
-0.00103616
0.00377784
-0.00193043
0.00395444
-0.00253674
0.00386898
-0.00286055
0.00358572
-0.00293119
0.0031761
-0.00278973
0.00270367
-0.0024882
0.00222606
-0.00208681
0.00179043
-0.00164149
0.00142595
-0.00119448
0.00114599
-0.000795273
0.000942265
-0.000501912
0.000766425
-0.000348245
0.000580677
-0.000304681
0.00039627
-0.000298505
0.00024094
-0.00029086
0.000127473
-0.00027846
6.00278e-05
-0.000265374
4.1823e-05
-0.000254644
6.78908e-05
-0.00025329
0.000122034
-0.000266376
0.000193189
-0.000282796
0.00027968
-0.000285631
0.000385682
-0.000256285
0.000515727
-0.000171439
0.000649411
-2.7695e-06
0.000777254
0.000217287
0.000917367
0.000465242
0.00110937
0.000748594
0.0014065
0.00104002
0.0018831
0.00137662
0.00262228
0.00137419
0.00321912
0.000654072
0.00328339
0.00078875
0.0037423
0.00277041
0.00962805
0.00355147
0.00369635
0.00417744
0.00058268
0.00518655
-0.000286731
0.00611221
-0.000894801
0.00657179
-0.00149574
0.00658843
-0.00194707
0.00623446
-0.00218278
0.00559962
-0.00222571
0.00478386
-0.00211542
0.00388594
-0.00189181
0.00298845
-0.00159071
0.00215802
-0.00125639
0.00144139
-0.000924869
0.000857976
-0.000611061
0.000416403
-0.000353699
0.000108179
-0.000193687
-0.000109477
-0.000130588
-0.000281855
-0.000132303
-0.000425738
-0.000154621
-0.000540534
-0.000176064
-0.00062436
-0.000194633
-0.000677476
-0.000212257
-0.000701047
-0.000231073
-0.000700392
-0.000253945
-0.000685694
-0.000281073
-0.000662928
-0.000305562
-0.000630704
-0.000317854
-0.000579243
-0.000307746
-0.00048762
-0.000263062
-0.000324975
-0.000165413
-0.000121648
1.39601e-05
0.000106211
0.000237384
0.000388513
0.000466293
0.000732223
0.000696307
0.00118916
0.000919679
0.00167343
0.000889917
0.0018104
0.000517106
0.000976321
0.00162283
0.00501173
0.0102208
0.0139132
0.0129789
0.00151701
0.0123573
0.000334877
0.0116013
-0.000138842
0.010558
-0.00045247
0.00924658
-0.000635621
0.00777957
-0.000715766
0.00625851
-0.000704654
0.00477087
-0.000627771
0.00339549
-0.00051643
0.00218212
-0.000377337
0.0011641
-0.000238375
0.000350046
-0.00011081
-0.000252177
-8.83813e-06
-0.000642456
3.65806e-05
-0.00087227
3.61264e-05
-0.00101794
1.50825e-05
-0.00113139
-1.88556e-05
-0.00122976
-5.62433e-05
-0.00131532
-9.05039e-05
-0.00138843
-0.000121524
-0.00145105
-0.000149643
-0.00150651
-0.000175608
-0.00156068
-0.000199775
-0.00162172
-0.000220028
-0.00169716
-0.00023013
-0.00179436
-0.000220646
-0.00192259
-0.000179515
-0.00209393
-9.17231e-05
-0.00231519
5.58434e-05
-0.00257247
0.000271238
-0.00290848
0.000573397
-0.00342371
0.000981527
-0.00421556
0.00148815
-0.00533939
0.00204351
-0.00690323
0.00245376
-0.00875736
0.00237124
-0.00813057
0.000996036
-0.00279321
0.00437444
0.00337873
0.00335784
0.00135147
0.00364853
-0.000429532
0.0035856
-0.000389545
0.00312675
-0.000176769
0.00243994
-2.89547e-05
0.00163765
9.76409e-05
0.000813561
0.000196315
4.32015e-05
0.00025393
-0.00060311
0.000268975
-0.00108698
0.000245492
-0.00141548
0.000217697
-0.00160888
0.000184558
-0.00171579
0.000143488
-0.00178285
0.00010319
-0.00183539
6.76223e-05
-0.00188991
3.56721e-05
-0.0019528
6.6411e-06
-0.00202207
-2.12283e-05
-0.00209457
-4.90256e-05
-0.00217183
-7.2385e-05
-0.0022567
-9.07341e-05
-0.00235267
-0.000103813
-0.00246258
-0.000110112
-0.00258673
-0.000105981
-0.00272173
-8.56405e-05
-0.00285899
-4.22591e-05
-0.00298368
3.29702e-05
-0.0030879
0.000160065
-0.00317613
0.000359464
-0.00325895
0.000656221
-0.00334835
0.00107092
-0.00344811
0.00158792
-0.00349944
0.00209484
-0.00341153
0.00236584
-0.00298685
0.00194656
-0.0016589
-0.000331908
-0.00436731
-0.000794342
0.00425742
-0.000350451
0.000907583
-0.00102789
0.00024791
-0.00154706
0.000129619
-0.00189937
0.000175548
-0.0021612
0.000232877
-0.00234708
0.000283522
-0.00247581
0.000325044
-0.0025592
0.000337314
-0.00260314
0.000312914
-0.00261989
0.000262248
-0.00260906
0.000206866
-0.00257898
0.000154482
-0.0025443
0.000108805
-0.00251476
7.365e-05
-0.00249517
4.80323e-05
-0.00248808
2.85794e-05
-0.0024939
1.24658e-05
-0.00251074
-4.38946e-06
-0.00253864
-2.11237e-05
-0.00257671
-3.43156e-05
-0.00262408
-4.33603e-05
-0.00267971
-4.81881e-05
-0.00274177
-4.80472e-05
-0.00280667
-4.10792e-05
-0.00286819
-2.41255e-05
-0.00291752
7.07074e-06
-0.00293956
5.50128e-05
-0.00291121
0.000131714
-0.00280547
0.00025373
-0.00258702
0.000437765
-0.00222719
0.000711095
-0.00172848
0.00108921
-0.00107442
0.00144078
-4.43779e-05
0.0013358
0.00127592
0.000626259
0.00159496
-0.000650942
-0.00267902
-0.00789107
-0.0111501
-0.00683741
-0.00590172
-0.00563464
-0.00548962
-0.00530101
-0.00505671
-0.00476292
-0.00442835
-0.00408191
-0.00375996
-0.00348852
-0.0032722
-0.00310796
-0.00298911
-0.00290514
-0.00284656
-0.00280725
-0.00278393
-0.00277741
-0.00278764
-0.00281111
-0.00284374
-0.00288133
-0.00291896
-0.00294984
-0.00296399
-0.00294722
-0.00288281
-0.00274202
-0.00247957
-0.00203346
-0.00131443
-0.000217724
0.00122992
0.00257227
0.00320505
0.00256089
)
;

boundaryField
{
    floor
    {
        type            calculated;
        value           nonuniform List<scalar> 
29
(
0
0
0
0
0
0
0
0
0
0
0
0
0
0
0
0
0
0
0
0
-4.97801e-06
-1.26376e-05
-1.90909e-05
-2.49591e-05
-2.0566e-06
-3.68146e-06
-1.05909e-05
-1.12725e-05
-1.02016e-05
)
;
    }
    ceiling
    {
        type            calculated;
        value           nonuniform List<scalar> 
43
(
-5.92372e-05
-5.70129e-05
-5.52283e-05
-2.81076e-05
-1.9169e-05
-1.54024e-05
-1.3061e-05
-1.14133e-05
-1.02719e-05
-9.52492e-06
-9.1237e-06
-9.03701e-06
-9.18864e-06
-9.45811e-06
-9.75805e-06
-1.00483e-05
-1.03139e-05
-1.05452e-05
-1.07294e-05
-1.08534e-05
-1.09096e-05
-1.08997e-05
-1.08394e-05
-1.07351e-05
-1.05924e-05
-1.04154e-05
-1.0207e-05
-9.96893e-06
-9.70065e-06
-9.40002e-06
-9.07314e-06
-8.72023e-06
-8.34126e-06
-7.93433e-06
-7.49498e-06
-6.86166e-06
-6.55277e-06
-6.52113e-06
-6.77919e-06
-6.42229e-06
6.34603e-06
3.91538e-06
-8.43448e-05
)
;
    }
    sWall
    {
        type            calculated;
        value           uniform -0.000279358;
    }
    nWall
    {
        type            calculated;
        value           nonuniform List<scalar> 6(-5.42001e-05 -6.46924e-05 -6.93641e-05 -8.48019e-05 -9.33353e-05 -0.000111707);
    }
    sideWalls
    {
        type            empty;
        value           nonuniform 0();
    }
    glass1
    {
        type            calculated;
        value           nonuniform List<scalar> 9(-5.977e-05 -0.000160578 -0.00024533 -0.000317492 -0.000378798 -0.000430542 -0.000477789 -0.000535058 -0.000599062);
    }
    glass2
    {
        type            calculated;
        value           nonuniform List<scalar> 2(-0.00029311 -0.000325619);
    }
    sun
    {
        type            calculated;
        value           uniform 0;
    }
    heatsource1
    {
        type            calculated;
        value           nonuniform List<scalar> 3(2.05024e-07 2.04921e-07 2.0494e-07);
    }
    heatsource2
    {
        type            calculated;
        value           nonuniform List<scalar> 4(5.1417e-08 5.1525e-08 0 0);
    }
    Table_master
    {
        type            calculated;
        value           nonuniform List<scalar> 9(-1.53769e-07 -1.53862e-07 -1.53895e-07 -1.53917e-07 -1.53932e-07 -1.53942e-07 -1.53946e-07 -1.5394e-07 -1.53905e-07);
    }
    Table_slave
    {
        type            calculated;
        value           nonuniform List<scalar> 9(1.53627e-07 1.53649e-07 1.53626e-07 1.53608e-07 1.53604e-07 1.53607e-07 1.53627e-07 1.53677e-07 1.53768e-07);
    }
    inlet
    {
        type            calculated;
        value           uniform -0.00623615;
    }
    outlet
    {
        type            calculated;
        value           nonuniform List<scalar> 2(0.00822967 0.00331599);
    }
}


// ************************************************************************* //
