/*--------------------------------*- C++ -*----------------------------------*=========                 |
  \      /  F ield         | OpenFOAM: The Open Source CFD Toolbox
   \    /   O peration     | Website:  https://openfoam.org
    \  /    A nd           | Version:  6
     \/     M anipulation  |
\*---------------------------------------------------------------------------*/
FoamFile
{
    version     2.0;
    format      ascii;
    class       volScalarField;
    location    "2300";
    object      PMV;
}
// * * * * * * * * * * * * * * * * * * * * * * * * * * * * * * * * * * * * * //

dimensions      [0 0 0 0 0 0 0];

internalField   nonuniform List<scalar> 
459
(
1.6578676110814103
1.442170811124681
1.4160118548408815
1.3925799677066524
1.377133890038192
1.368252817227675
1.365542895785556
1.3688672427886963
1.3785615820089097
1.3957310040422972
1.4208032895361464
1.4568345987286782
1.503880974981213
1.5406856323578564
1.544985075393403
1.6094587072805504
1.59656629542828
1.5917909870927482
1.5932235987220478
1.5960887728096191
1.5984763675599145
1.5970251630260563
1.5925445858911784
1.591889183590866
1.5927224076246846
1.5941265892996528
1.5959732169874534
1.5983746488313053
1.6016922808771679
1.6069280715638796
1.6162999807624057
1.6256916381195552
1.6290334348604316
1.6409676331128535
1.6203642331622188
1.4631991111054448
1.4550478365149213
1.433751964588847
1.4215592858238022
1.4141603215026888
1.4118306099530475
1.4138140378470454
1.4183425034237522
1.4266436174800323
1.441287596776285
1.4652914500673733
1.4994587236518764
1.5320863538123186
1.5330418548163764
1.5330418548163764
1.5325641051097578
1.5735127250688954
1.5870154973907202
1.5831949762985402
1.5844703279452659
1.5785812394161285
1.574127270265272
1.572617920330022
1.5736162516269538
1.5747312062898298
1.5755159410129214
1.5756699338182352
1.5763756908550643
1.5772364376505335
1.5783091398676103
1.5812909046558563
1.5889450478750506
1.6070713260892684
1.6128009617783463
1.604843202912121
1.6624224942060992
1.4661871303333058
1.490422757603764
1.4809886421288503
1.4784899488961434
1.4776445075374143
1.4791156976962796
1.479940207261501
1.4751382628353504
1.468136792977271
1.4648175317056988
1.4703224140910467
1.4884336717372306
1.519305456207368
1.5296975735232226
1.5320863538123186
1.5335196029304505
1.482625812213565
1.5223902450937075
1.5350264757624579
1.5440009449787593
1.553564577010836
1.5604214002068166
1.5638177356317529
1.5718600925155297
1.5774861226002255
1.5805291776418433
1.5816457859510316
1.5821953534649278
1.5826359553768354
1.5812337958361524
1.5768915323725943
1.5787158701317032
1.596578425249209
1.588913753826065
1.5438370544692732
1.7384447110462975
1.471805559068295
1.5187110996226105
1.5288701893126313
1.5463262930595554
1.561814686293857
1.5742076896367465
1.5691797952058537
1.5433611115550867
1.5070091318314196
1.4761781474126856
1.4601697605866328
1.4628496859378568
1.4834420478892107
1.5147177074072353
1.5330418548163764
1.5178628081667997
1.477024052239308
1.4757678559778573
1.5034006420455985
1.5293379615855232
1.5505431341624607
1.5691824917653223
1.582764498589561
1.5875828952488626
1.5860804663374963
1.5855564216756792
1.5862176202519904
1.5876212122741051
1.5910126096374901
1.5972796019381104
1.6093782817074471
1.631613037267514
1.6254956112595087
1.6111215269038137
1.568770706563189
1.4999737268560922
1.828342443893004
1.492557098607654
1.5457392100710832
1.5747118902263115
1.6224475661202717
1.6768801525484986
1.7006191114551037
1.654552807267791
1.5830925375165625
1.5143716651870363
1.4647334683092967
1.4373827217702222
1.4338492512873857
1.4506182973617172
1.479441425606141
1.5056712876940266
1.512553573348274
1.509244669518654
1.517793311562128
1.5423396521218988
1.5718998078968003
1.5987480939385366
1.6211599784726036
1.6377151370994427
1.6473888075185237
1.6495210576715196
1.6500919189975929
1.6497889462236353
1.6483757876674905
1.6468435387428777
1.6462169541793543
1.647184777206657
1.6490051314178908
1.6356440151520464
1.6095071984016431
1.5514278339452352
1.5449711401730406
1.674376593404769
1.6611723067641988
1.4990983279744816
1.9178603151064122
1.5355144705664956
1.5987125683677623
1.6281178127026006
1.6968024370043004
1.7254238965482613
1.713374903360201
1.6341187776805024
1.5563750898657178
1.4854242110133409
1.432636529385687
1.4055532309665824
1.4056568452495792
1.4283886140499509
1.4657663394007836
1.5058551524657122
1.536586043644919
1.5582110766992021
1.5820276503459916
1.6123693310056282
1.6314203736700381
1.646218283597923
1.6581506600566835
1.6672183958720055
1.674853789398061
1.6805799723255272
1.6848744033149596
1.6882143929992348
1.6891686558334726
1.6877372582535686
1.6843972531010587
1.679625630247374
1.6715110679195615
1.6457979627626653
1.6119510910677346
1.5507383734285716
1.5483050992602403
1.5642714974055913
1.5635455957973354
1.5757645742861603
2.0071360697863594
1.6306011238437117
1.7496633098158982
1.7237256807545287
1.7202857013894193
1.6941595062091361
1.6406352789106227
1.5676314817068995
1.488604478587753
1.4201829572543365
1.3766505450817619
1.3642994396138228
1.3817258030848105
1.423533352960002
1.4806874790848437
1.5421049657456
1.5841501172896804
1.6080262842016162
1.6290334348604316
1.648127550132417
1.6638777396085045
1.6767625517618017
1.6867829821158802
1.6944169420436506
1.7001420350869403
1.7039585822209817
1.7068208964556042
1.7077749827989563
1.7072979407799542
1.7044356403310588
1.6991878755355754
1.692031390924763
1.6839201006859545
1.6721167593461561
1.6318441774223629
1.5748835772342695
1.5526018960764738
1.542449180439905
1.5168829834054136
1.6011955862670297
2.1394325748840117
1.9496575129528249
1.904988113905912
1.8057269353834837
1.7465453695864261
1.6646248575255223
1.560610366383182
1.453925842354942
1.3659610485331735
1.3118047482985171
1.2986173779338688
1.3240367184071584
1.3796742195330474
1.4563599125690725
1.5456924868333055
1.5884481632336336
1.6213949020296232
1.647650236558655
1.6681728499930826
1.6839201006859545
1.6963253425178246
1.705389749672666
1.7125452757090167
1.7173153356474506
1.7211312143595139
1.7230390969077114
1.723516061602916
1.7230390969077114
1.7211312143595139
1.7177923287421195
1.7125452757090167
1.7049126961490286
1.6972795292335892
1.6877372582535686
1.6767625517618017
1.6662639332494908
1.6457375579138975
1.6343025806985394
1.5741755172423344
1.4905011802353978
2.3366434460404375
2.204994114622437
2.03894735756664
1.8581385723278863
1.650384740611363
1.4348443264345847
1.265064415672318
1.1609286451068421
1.1268958300849035
1.1546966119368947
1.2295331758605272
1.3356362545898557
1.4577592463921594
1.541641075530743
1.5970438162145515
1.6409676331128535
1.6696045151979952
1.6891686558334726
1.7034815218209485
1.7144533277656062
1.7225621298335394
1.724445899617409
1.7236036540990989
1.7217291727756752
1.7193332743594445
1.7159050048345938
1.7105641645347802
1.7044669981628224
1.696405039020096
1.6868010507825473
1.6757589672563042
1.663648715970984
1.651942765441882
1.6381800192584473
1.6220822820967697
1.6083525110856258
1.5993319643088
1.59417883241412
1.583640762029693
1.5532812023073301
-2.9749545394199717
-1.8340121996570382
-1.1366535498591575
-0.3897164964520064
0.1705278078932653
0.6043312719191332
0.9554306094477211
1.217934260731885
1.3805678255103586
1.5058076326757701
1.5798519268506666
1.6309429898467263
1.6524929306145488
1.6688784670262884
1.681030800829223
1.6899287969843808
1.6952684741351514
1.698379998231035
1.6987281253654758
1.698070285454037
1.696001365289196
1.692860354228018
1.6889534905552652
1.6846238267376348
1.6793717632346314
1.6738046950419485
1.668181141852688
1.6633370666680805
1.6596736586023715
1.6565824167384364
1.6549420874792116
1.653954141497316
1.6536626927086342
1.6552623273890439
1.665814699511405
1.7011423234753995
1.7721445080021174
1.6164866057096225
-2.4668287407533454
-0.9991908981935114
0.044493491786338914
0.576603795256133
0.9013039947219929
1.1039493104307632
1.2579029651538247
1.3763695265631872
1.4681734636868753
1.5369931819994613
1.583544629454891
1.615828609134181
1.638339139328531
1.65485324530891
1.6656788708268633
1.6730228438945554
1.6778667105392522
1.6808650793463713
1.6823271587295285
1.6832000753874055
1.6828029943315796
1.6825580506913778
1.6809917673168997
1.6795980276205404
1.6779657644319057
1.6757592594295938
1.6742239613713386
1.6738251752033102
1.674165769195237
1.6776316428224298
1.684596508048506
1.6960018928594163
1.7080342505314938
1.7182524869310154
1.730155000417601
1.7684479323676034
1.7033170999615117
1.654811779153613
-0.8566976451527447
-0.995206113537511
-0.8753401987522696
0.373962850311813
0.8878598109136074
1.104023343582151
1.2370838381885672
1.3396873300813192
1.4226000284785776
1.48993238678764
1.5437142868509661
1.5855265268874716
1.6154014993994108
1.6358909065867357
1.6489512163211517
1.6568296897294528
1.6606342414970603
1.6621024360941428
1.6618847377677506
1.661988239560316
1.6611910572838395
1.6615343767543345
1.6611988064734995
1.6616600684245357
1.6618882906726549
1.6629168164639199
1.6638542922180681
1.6659431146820922
1.668566585871431
1.6732199944012247
1.6801078026637402
1.691486255138717
1.712673153377413
1.7505813322399122
1.7783505333661958
1.7845470740524123
1.7519770054110302
1.7102798123767347
1.6687956999569364
1.6733239686273307
)
;

boundaryField
{
    ".*"
    {
        type            zeroGradient;
    }
}


// ************************************************************************* //
