/*--------------------------------*- C++ -*----------------------------------*\
  =========                 |
  \\      /  F ield         | OpenFOAM: The Open Source CFD Toolbox
   \\    /   O peration     | Website:  https://openfoam.org
    \\  /    A nd           | Version:  6
     \\/     M anipulation  |
\*---------------------------------------------------------------------------*/
FoamFile
{
    version     2.0;
    format      ascii;
    class       volScalarField;
    location    "2100";
    object      nut;
}
// * * * * * * * * * * * * * * * * * * * * * * * * * * * * * * * * * * * * * //

dimensions      [0 2 -1 0 0 0 0];

internalField   nonuniform List<scalar> 
459
(
0.00113414
0.00124178
0.00126535
0.00132767
0.00138604
0.00144129
0.00149624
0.0015472
0.00158171
0.00159403
0.00157908
0.00153382
0.00145755
0.00135534
0.00124117
0.000508862
0.000615119
0.00069025
0.000686207
0.000661865
0.000630064
0.000590315
0.00055108
0.000515576
0.000484127
0.000456335
0.000431691
0.000409813
0.0003902
0.000372162
0.000354827
0.000337014
0.000326668
0.000300313
0.00154533
0.00386638
0.0037373
0.00436337
0.00497958
0.00558788
0.00610728
0.0065124
0.00687024
0.00715273
0.0073227
0.00734125
0.00714792
0.00658708
0.00504318
0.00127521
0.000716696
0.000543569
0.00113352
0.00157447
0.00189482
0.00206341
0.00205198
0.00163986
0.00141078
0.0012474
0.00112214
0.00102263
0.000941682
0.000871965
0.000807284
0.000744758
0.000689211
0.000639251
0.000764394
0.000401021
0.00188488
0.00528691
0.00466519
0.00585158
0.00645458
0.00690447
0.00725342
0.00754424
0.00785034
0.00815896
0.00843037
0.00861838
0.00866842
0.00849124
0.00783627
0.00594328
0.00129605
0.00105908
0.00153725
0.00197814
0.00237772
0.0026475
0.00256952
0.00084075
0.000740996
0.000661013
0.000596631
0.000544311
0.00050133
0.000465736
0.000436276
0.000412424
0.000444143
0.000510905
0.000866208
0.000470032
0.00220841
0.00672948
0.00471528
0.00620444
0.00673533
0.00693536
0.00707907
0.00725353
0.00751444
0.00784597
0.00819548
0.00850753
0.00872046
0.00876102
0.00856542
0.00783831
0.00542304
0.00153027
0.00190673
0.00247062
0.00301859
0.00344865
0.00370015
0.00344609
0.00094559
0.000858551
0.000796195
0.000748467
0.00070772
0.00067073
0.000635241
0.000598188
0.000555501
0.000521548
0.000537187
0.00102365
0.000520474
0.0025366
0.0085604
0.00522161
0.006022
0.00669198
0.00676798
0.00674564
0.00687101
0.00710776
0.00745938
0.00785647
0.00822574
0.00847817
0.0085564
0.00845024
0.00812295
0.00738054
0.00610272
0.00565629
0.00550497
0.00544221
0.00538644
0.00529191
0.00504301
0.00421079
0.00380857
0.00357154
0.00338787
0.00319793
0.00292906
0.00257905
0.00216544
0.00171556
0.00127131
0.000940514
0.000991532
0.000680551
0.00064133
0.000764905
0.000855952
0.00288295
0.0105442
0.00715292
0.00613221
0.00661377
0.00676174
0.00669804
0.00678119
0.00696684
0.00728769
0.00770922
0.0081221
0.00839917
0.00845752
0.00830006
0.00800543
0.00766586
0.00733386
0.00713497
0.00696033
0.00674833
0.00650507
0.00623901
0.00592897
0.00551556
0.00516011
0.00485548
0.00457232
0.00429158
0.00399049
0.00361818
0.0031617
0.00262486
0.00204171
0.00153463
0.0011335
0.000907212
0.00080796
0.0011702
0.000897115
0.00319064
0.0118929
0.009855
0.0078941
0.00755698
0.00731042
0.00702779
0.00690735
0.00701849
0.00735767
0.00783671
0.00829902
0.0085816
0.00858869
0.0083422
0.00799085
0.00773954
0.00766989
0.00764411
0.00749213
0.00719567
0.00681309
0.00638809
0.00594351
0.00550105
0.00511085
0.004768
0.0044582
0.00417817
0.00393238
0.00371943
0.00341709
0.00299792
0.00249189
0.0020237
0.00159139
0.00131898
0.00124953
0.00127603
0.00101831
0.00324372
0.0103873
0.00937714
0.00868775
0.00801864
0.0073417
0.00691356
0.0068465
0.00713169
0.00767162
0.00829594
0.00879817
0.00900963
0.00887011
0.00846416
0.00802924
0.00781957
0.00781815
0.00769837
0.00734155
0.00682738
0.00624154
0.00565196
0.00511477
0.0046643
0.0043019
0.00400626
0.00376474
0.00357694
0.00344791
0.00338182
0.00334638
0.00314643
0.00282067
0.00255
0.00243672
0.00257331
0.00301562
0.00389997
0.00154528
0.00315193
0.00371654
0.00409598
0.00418659
0.00439454
0.00485908
0.00559813
0.00656219
0.00762574
0.00861436
0.00934311
0.00965676
0.00950543
0.00899149
0.00836315
0.00795757
0.00768931
0.00740268
0.00694958
0.00632403
0.00562093
0.00494011
0.00435579
0.00389687
0.00355007
0.00328359
0.00307008
0.00289377
0.00274533
0.00261742
0.00250404
0.00240481
0.00233127
0.00228619
0.00228547
0.00231826
0.00232144
0.00223824
0.00208356
0.00143528
0.00144915
0.00366563
0.00664114
0.0086009
0.00991036
0.0107258
0.0110836
0.0110489
0.0106986
0.0101103
0.00927823
0.008393
0.00768154
0.00717557
0.00667784
0.00607738
0.0053944
0.00470818
0.00408575
0.00357225
0.00318885
0.00291325
0.00271259
0.00256144
0.00244486
0.00235557
0.00229077
0.00225075
0.00223854
0.00225362
0.00228629
0.00233546
0.00239667
0.00245182
0.00247664
0.0024725
0.00219498
0.00118752
0.00218604
0.00672804
0.0093351
0.0100358
0.0102712
0.0101518
0.00970215
0.00903844
0.00827381
0.00751126
0.00678918
0.00616608
0.00564154
0.00512554
0.00457415
0.00403023
0.00354217
0.00313662
0.00281714
0.00257301
0.00238932
0.00225689
0.00216435
0.00210482
0.00207452
0.00207014
0.00208702
0.00212068
0.00217834
0.00225553
0.00234901
0.00245322
0.00255625
0.00264495
0.00271951
0.00273584
0.0018933
0.00122574
0.00195896
0.00207794
0.00216363
0.00233454
0.0022462
0.00216228
0.002094
0.00199412
0.00185824
0.00169441
0.00151112
0.00132361
0.0011536
0.00101574
0.000911498
0.000834785
0.000778439
0.000737131
0.000707664
0.000688242
0.000677608
0.000674788
0.00067825
0.00068668
0.000699694
0.000717151
0.000739117
0.000765889
0.000798134
0.000836767
0.000881245
0.000932065
0.000989547
0.00105405
0.00112533
0.00120747
0.00122974
0.00112108
0.00104569
0.00118636
)
;

boundaryField
{
    floor
    {
        type            nutkWallFunction;
        Cmu             0.09;
        kappa           0.41;
        E               9.8;
        value           nonuniform List<scalar> 
29
(
0.000148729
6.08488e-05
7.42364e-05
8.35303e-05
8.30334e-05
8.0034e-05
7.60954e-05
7.11384e-05
6.62055e-05
6.17042e-05
5.76851e-05
5.41062e-05
5.09097e-05
4.80526e-05
4.54748e-05
4.30893e-05
4.07828e-05
3.83974e-05
3.70043e-05
3.3429e-05
3.34289e-05
4.68986e-05
5.58729e-05
6.23271e-05
0.000148729
6.08488e-05
6.52562e-05
0.000127645
0.000181516
)
;
    }
    ceiling
    {
        type            nutkWallFunction;
        Cmu             0.09;
        kappa           0.41;
        E               9.8;
        value           nonuniform List<scalar> 
43
(
0.000228732
0.000241661
0.000250924
0.00026943
0.000260002
0.000250977
0.000243602
0.000232756
0.000217899
0.000199825
0.000179374
0.000158163
0.000138641
0.00012257
0.000110253
0.000101085
9.42882e-05
8.92685e-05
8.56673e-05
8.32841e-05
8.19758e-05
8.16284e-05
8.20548e-05
8.3092e-05
8.46902e-05
8.68286e-05
8.95105e-05
9.27666e-05
9.66704e-05
0.000101323
0.000106649
0.000112696
0.00011949
0.000127061
0.000135366
0.000144862
0.000147423
0.000134872
0.000126083
0.000142431
0.000355901
0.000414066
0.000253135
)
;
    }
    sWall
    {
        type            nutkWallFunction;
        Cmu             0.09;
        kappa           0.41;
        E               9.8;
        value           uniform 0.000228797;
    }
    nWall
    {
        type            nutkWallFunction;
        Cmu             0.09;
        kappa           0.41;
        E               9.8;
        value           nonuniform List<scalar> 6(0.000103626 0.000108543 0.000122876 0.000142574 0.000146977 0.000142441);
    }
    sideWalls
    {
        type            empty;
    }
    glass1
    {
        type            nutkWallFunction;
        Cmu             0.09;
        kappa           0.41;
        E               9.8;
        value           nonuniform List<scalar> 9(0.000136512 0.00018346 0.000221165 0.000256406 0.000291594 0.000328212 0.000360361 0.000365885 0.000356364);
    }
    glass2
    {
        type            nutkWallFunction;
        Cmu             0.09;
        kappa           0.41;
        E               9.8;
        value           nonuniform List<scalar> 2(0.000183296 0.000170913);
    }
    sun
    {
        type            nutkWallFunction;
        Cmu             0.09;
        kappa           0.41;
        E               9.8;
        value           nonuniform List<scalar> 
14
(
0.000136386
0.000148799
0.000151501
0.000158621
0.000165255
0.000171505
0.000177695
0.000183413
0.000187275
0.00018865
0.00018698
0.000181914
0.000173339
0.000161768
)
;
    }
    heatsource1
    {
        type            nutkWallFunction;
        Cmu             0.09;
        kappa           0.41;
        E               9.8;
        value           nonuniform List<scalar> 3(7.74955e-05 9.26466e-05 0.000103623);
    }
    heatsource2
    {
        type            nutkWallFunction;
        Cmu             0.09;
        kappa           0.41;
        E               9.8;
        value           nonuniform List<scalar> 4(0.000152624 8.67732e-05 8.67731e-05 0.000155006);
    }
    Table_master
    {
        type            nutkWallFunction;
        Cmu             0.09;
        kappa           0.41;
        E               9.8;
        value           nonuniform List<scalar> 9(0.000101799 8.97393e-05 7.9931e-05 7.19327e-05 6.53556e-05 5.98945e-05 5.53281e-05 5.15157e-05 4.84053e-05);
    }
    Table_slave
    {
        type            nutkWallFunction;
        Cmu             0.09;
        kappa           0.41;
        E               9.8;
        value           nonuniform List<scalar> 9(0.000114294 0.000103933 9.64345e-05 9.06488e-05 8.56747e-05 8.11297e-05 7.67407e-05 7.21266e-05 6.67677e-05);
    }
    inlet
    {
        type            calculated;
        value           uniform 0.000100623;
    }
    outlet
    {
        type            calculated;
        value           nonuniform List<scalar> 2(0.00195896 0.00207794);
    }
}


// ************************************************************************* //
