/*--------------------------------*- C++ -*----------------------------------*=========                 |
  \      /  F ield         | OpenFOAM: The Open Source CFD Toolbox
   \    /   O peration     | Website:  https://openfoam.org
    \  /    A nd           | Version:  6
     \/     M anipulation  |
\*---------------------------------------------------------------------------*/
FoamFile
{
    version     2.0;
    format      ascii;
    class       volScalarField;
    location    "400";
    object      PPD;
}
// * * * * * * * * * * * * * * * * * * * * * * * * * * * * * * * * * * * * * //

dimensions      [0 0 0 0 0 0 0];

internalField   nonuniform List<scalar> 
459
(
43.735274240174526
32.82743019158859
32.77438432071715
31.656433743378685
30.798893930386086
30.12531321708397
29.646126570146805
29.333322744823306
29.220022919274044
29.338064854078524
29.727356200508353
30.48060737473861
31.79916870856995
33.22655036352812
32.6873307287366
34.526389783880035
37.0536163326757
36.792397611913884
36.50827210885434
36.24860387098937
35.989691118916824
35.80187053534037
35.591059858107215
35.40410961859669
35.17100550028948
34.915347204746865
34.61423822724457
34.24519768255355
33.694906576083184
32.89958701748847
31.689775718102823
30.045658194897413
29.229305460077512
29.271985494173876
42.04676668583354
32.58980816398871
33.885760497509196
32.609618239685574
31.840500631259317
31.251293611921696
30.837171982844083
30.58635280271824
30.50409361643993
30.59119706126664
30.818945419641892
31.18748290476104
31.69467904944257
32.002646425252266
31.906487684178146
33.44788311996379
36.51659929688713
33.48083193113956
36.390148008170016
36.01319718893349
35.708112915153194
35.45080842163675
35.217574165952826
34.96177124008669
34.7067672356694
34.42950206375335
34.15320839533844
33.854998862599345
33.5351543852758
33.19398292046661
32.80924600585742
32.33684563067207
31.711985020730125
30.851386000703314
29.937592180438998
25.05000371667134
45.57681750115231
31.757606784583317
35.34983431484801
34.112974835924646
33.66103120590114
33.362774009103575
33.1511468023438
33.045675938399555
33.00505321557209
33.05278812971186
33.106634996868905
33.036729539994596
32.80137291015359
32.27665223233706
31.741127825980826
31.761442391824772
30.979670725824946
36.747393719049434
36.31934793352481
35.96619136612041
35.708112915153194
35.47416752859134
35.264168962029316
34.89214510699232
34.49872769559242
34.13022810893793
33.786346369463004
33.46679377631298
33.14861315407815
32.8318205213677
32.51643163099544
31.96749192950496
31.404558510754185
31.291286239095285
29.477543220948647
23.939739813526828
50.73253728241095
31.50228590224782
36.535942100762306
35.634921548754576
35.79234765381197
35.943288121369775
36.12057939378548
36.312876618889916
36.459277692430895
36.512060004077355
36.419961251784365
35.96475844162978
35.05891241884338
33.77555782336415
32.43174708938311
31.241301820361357
30.469500550485577
32.74490080743095
35.441603540185156
36.65022454637101
36.34294174382429
36.0837532358186
35.8722556597661
35.708112915153194
35.614457637412684
35.54428359335729
35.4975330971931
34.53380315145458
33.533974574418394
32.76278186979253
32.31416891519312
32.36270824452323
33.08460880193816
33.0050712189029
32.76672339644128
28.964086200914622
20.686640744772532
56.33870270947082
32.235253308076494
37.4266016449694
37.02448771836988
37.84448622416551
38.69155551983693
39.51652511869856
40.26430238429801
40.8115036311349
41.0729525659887
40.89911356863718
40.024110201061234
38.51226382532059
36.606676142320026
34.649319709719805
32.90000039778781
31.973739540343217
32.76845761762853
33.79633490380213
35.81107934974011
36.76868684231978
36.55556498277948
36.36654177095551
36.24860387098937
36.20147237018794
36.20147237018794
36.20147237018794
36.20147237018794
35.7491262613424
34.90946767998028
34.24423951537388
33.807059315096026
33.59424755497169
32.922539434067744
31.899126602551064
28.081112501217447
28.122642150197123
32.56140065349895
33.037347002537246
22.433002601429934
61.544358665793276
34.04993509504874
39.117625357242076
38.3902972121389
39.61244985762045
41.20306586044547
42.94350986190126
44.72831361583928
46.20860446978726
46.98362347630936
46.3341140542855
44.567388875020605
42.29967557961169
39.828623284286486
37.414727294342576
35.32765880347786
33.84123026203116
33.17398786318883
33.202351193556225
35.02069604726624
36.977218275397455
36.98230233830268
36.86356641789112
36.76868684231978
36.744982167046196
36.744982167046196
36.792397611913884
36.81611446896164
36.81611446896164
36.72128359296171
36.55556498277948
35.8663923553984
34.763857534993576
33.295759220829254
31.58571308590321
28.107124627461516
27.963514094237297
27.1972913549086
26.779827179808393
28.03085085726954
65.83666833495583
38.84507447445862
46.62769875535581
41.495558331057296
40.93790731412662
42.997181617587565
45.82232376174496
47.06769739703203
48.143856686185174
49.37862443319004
49.92020823613457
47.297827389443285
44.73349245613751
42.185226269983254
39.760086118369266
37.557944652954696
35.604690322277506
33.81104368628441
32.83744709095305
34.720354561936816
36.717948405913546
37.36326641122857
37.29171933223269
37.24405097571479
37.24405097571479
37.29171933223269
37.36326641122857
37.38712728791226
37.38712728791226
37.315562426356585
37.12498442974102
36.76868684231978
36.27217899037881
35.121301052152106
32.74888933268515
29.55900394630804
28.07424849239152
26.85297263040718
25.05877139537138
29.668463054122967
72.85911649265573
59.23370685549411
58.403564732934406
49.64414509272111
46.07502253085138
45.54229754913554
46.31998021323118
47.239193124511054
47.74905481433821
47.150986288365296
46.46393494096387
45.33537521829264
43.8396643418958
42.180036592890104
40.51884164675041
38.88340438181042
37.12517531633161
34.68089690433334
32.65462707459014
34.79796949158575
37.04120712416482
37.721797256360006
37.67391703575999
37.67391703575999
37.721797256360006
37.79366117539613
37.86557722852303
37.91355013172533
37.937545222103765
37.86557722852303
37.721797256360006
37.41099407803695
36.86356641789112
36.27217899037881
35.708112915153194
35.12446301628266
34.82257856919267
34.70508361237127
29.280231941338016
22.88374965511916
81.87288150742404
75.34503339784897
66.78629855999284
58.35619082711105
52.08301993533275
48.18468525719722
45.97809202431292
44.830099039838736
44.29363669629946
43.81048866367886
42.89879416380994
41.7758963194493
40.717642375476615
39.79264197742824
39.07444347111399
38.51056417919354
37.79745475612134
35.85326908163094
32.9708916109318
35.56997530408498
37.98555264442867
38.0816362533453
38.057606773644
38.0816362533453
38.15375890098704
38.250001980131
38.176878695413684
37.49659694847728
36.71991051492622
35.872944211024645
34.961663681091395
33.94804369622118
32.899912152126575
32.046815880848115
30.98880689237393
29.961816952973635
29.15500765792717
28.662898784865632
28.056027151414213
26.29139640558995
75.29746614416413
5.000067009945681
16.56199567700112
27.431605248431538
32.699776183963465
34.92841692269246
35.691559457639855
35.90083133091521
35.948219191563695
35.915780201765074
35.960197225955284
36.11049984825192
36.50143351538808
37.179974467247355
38.17818434611429
37.83872076303019
34.16132896032403
38.20186910065055
38.27407690659795
38.49100453165817
38.466879035707464
38.49100453165817
38.45822904932513
37.75322220172068
37.02619130839692
36.24516892949507
35.44747673381596
34.6934891296912
34.08239002473944
33.70132167802967
33.421276286100394
33.180549503957025
32.90368874154504
32.763212298551494
33.169584582370916
35.0217738353781
39.366416819992814
29.274368041613045
51.7063124183984
5.012099201329605
13.878845281545708
22.440063116246932
27.13385337305614
29.226716813182122
30.030532270383517
30.365742871349624
30.812085577419253
31.33983807800651
31.99111475656349
32.74686159432895
33.6471498524251
34.741913967281334
36.13969034164989
37.90943098554145
34.68535274557037
38.51513560975947
38.660038890833434
38.998918038239076
38.077754309974694
36.8246320307641
36.344202175168824
35.892891061394906
35.40883839461215
35.01487715631369
34.71788078340201
34.580204848157265
34.614267404090455
34.80528610954694
35.19728156851221
35.79318603775508
36.29840259342938
36.66396360950117
37.21094702874279
39.0923480052688
36.11677626928099
31.950696250942826
17.333403478839926
19.46620078235101
16.652032094552723
7.459164272819507
18.735876466407376
28.804271886787888
31.07505159906465
28.601595344551143
27.408364990673334
26.787397723790278
26.483697585019996
26.471797836384468
26.581282292922694
26.769874126410215
26.89239733317035
26.96643129392288
26.928630640777456
26.75568038298067
27.2308207722255
28.855644098551693
30.015262772160682
29.517872472365468
29.71217818243514
29.79674015622099
29.80515055709084
29.797431974419666
29.79933561780399
29.874379123462347
30.075435435348723
30.451765571416715
31.132570831447964
32.115421675635005
33.64226422118411
36.11731772207593
40.28670016492765
41.177215360360584
38.179058173536745
34.58776732766174
31.8317541428313
32.87817912676786
)
;

boundaryField
{
    ".*"
    {
        type            zeroGradient;
    }
}


// ************************************************************************* //
