// -*- C++ -*-
// File generated by PyFoam - sorry for the ugliness

FoamFile
{
 version 2.0;
 format ascii;
 class volScalarField;
 location "400";
 object T;
}

dimensions [ 0 0 0 1 0 0 0 ];

internalField nonuniform List<scalar> 459
(
  301.776
  301.422
  301.414
  301.415
  301.417
  301.418
  301.419
  301.419
  301.419
  301.419
  301.418
  301.414
  301.409
  301.403
  301.397
  301.347
  301.329
  301.318
  301.306
  301.295
  301.284
  301.276
  301.267
  301.259
  301.249
  301.238
  301.225
  301.209
  301.185
  301.15
  301.096
  301.021
  300.983
  300.985
  302.031
  301.453
  301.428
  301.435
  301.443
  301.449
  301.454
  301.458
  301.461
  301.462
  301.459
  301.45
  301.436
  301.416
  301.391
  301.37
  301.349
  301.325
  301.301
  301.285
  301.272
  301.261
  301.251
  301.24
  301.229
  301.217
  301.205
  301.192
  301.178
  301.163
  301.146
  301.125
  301.097
  301.058
  301.016
  300.994
  302.28
  301.507
  301.456
  301.47
  301.486
  301.502
  301.515
  301.526
  301.533
  301.536
  301.532
  301.517
  301.493
  301.46
  301.423
  301.391
  301.367
  301.322
  301.298
  301.283
  301.272
  301.262
  301.253
  301.237
  301.22
  301.204
  301.189
  301.175
  301.161
  301.147
  301.133
  301.118
  301.104
  301.078
  301.047
  301.015
  302.514
  301.578
  301.486
  301.504
  301.531
  301.557
  301.581
  301.602
  301.617
  301.623
  301.619
  301.6
  301.565
  301.517
  301.464
  301.414
  301.372
  301.35
  301.328
  301.312
  301.299
  301.288
  301.279
  301.272
  301.268
  301.265
  301.263
  301.262
  301.261
  301.258
  301.254
  301.249
  301.241
  301.196
  301.145
  301.087
  301.023
  302.729
  301.669
  301.521
  301.531
  301.565
  301.602
  301.638
  301.671
  301.697
  301.712
  301.712
  301.691
  301.648
  301.588
  301.521
  301.456
  301.404
  301.368
  301.345
  301.329
  301.317
  301.308
  301.3
  301.295
  301.293
  301.293
  301.293
  301.293
  301.292
  301.289
  301.283
  301.274
  301.261
  301.233
  301.187
  301.124
  301.053
  301.135
  301.189
  301.21
  302.913
  301.782
  301.584
  301.557
  301.588
  301.629
  301.672
  301.715
  301.754
  301.783
  301.791
  301.772
  301.725
  301.657
  301.579
  301.503
  301.436
  301.387
  301.359
  301.343
  301.333
  301.326
  301.321
  301.317
  301.316
  301.316
  301.318
  301.319
  301.319
  301.315
  301.308
  301.295
  301.278
  301.254
  301.216
  301.161
  301.101
  301.11
  301.122
  301.162
  303.057
  301.97
  301.761
  301.656
  301.633
  301.655
  301.692
  301.733
  301.775
  301.823
  301.844
  301.827
  301.779
  301.708
  301.626
  301.543
  301.466
  301.403
  301.368
  301.354
  301.346
  301.342
  301.339
  301.337
  301.337
  301.339
  301.342
  301.343
  301.343
  301.34
  301.332
  301.317
  301.296
  301.27
  301.239
  301.196
  301.154
  301.145
  301.147
  301.177
  303.304
  302.496
  302.267
  302.051
  301.896
  301.816
  301.791
  301.798
  301.823
  301.863
  301.873
  301.847
  301.794
  301.724
  301.646
  301.566
  301.488
  301.414
  301.373
  301.362
  301.357
  301.357
  301.355
  301.355
  301.357
  301.36
  301.363
  301.365
  301.366
  301.363
  301.357
  301.344
  301.321
  301.296
  301.272
  301.247
  301.234
  301.248
  301.266
  301.451
  303.651
  303.303
  302.99
  302.696
  302.446
  302.258
  302.132
  302.055
  302.013
  301.969
  301.908
  301.837
  301.764
  301.69
  301.618
  301.549
  301.482
  301.416
  301.376
  301.369
  301.368
  301.372
  301.371
  301.372
  301.375
  301.379
  301.383
  301.386
  301.388
  301.389
  301.39
  301.392
  301.397
  301.406
  301.427
  301.462
  301.51
  301.556
  301.589
  301.669
  295.763
  299.356
  300.893
  301.414
  301.613
  301.688
  301.707
  301.702
  301.683
  301.652
  301.615
  301.573
  301.531
  301.489
  301.445
  301.398
  301.373
  301.377
  301.38
  301.389
  301.388
  301.389
  301.393
  301.398
  301.402
  301.407
  301.413
  301.419
  301.425
  301.433
  301.441
  301.454
  301.474
  301.502
  301.535
  301.561
  301.575
  301.59
  296.542
  299.3
  300.458
  300.99
  301.245
  301.364
  301.414
  301.429
  301.436
  301.435
  301.43
  301.421
  301.41
  301.399
  301.386
  301.368
  301.369
  301.39
  301.396
  301.41
  301.408
  301.409
  301.413
  301.417
  301.42
  301.424
  301.428
  301.434
  301.44
  301.447
  301.455
  301.466
  301.481
  301.502
  301.525
  301.544
  301.536
  301.57
  298.258
  298.203
  298.199
  299.907
  300.574
  300.963
  301.133
  301.206
  301.244
  301.264
  301.276
  301.287
  301.296
  301.306
  301.314
  301.323
  301.331
  301.34
  301.372
  301.426
  301.433
  301.447
  301.449
  301.451
  301.454
  301.457
  301.459
  301.461
  301.463
  301.464
  301.465
  301.467
  301.47
  301.474
  301.481
  301.499
  301.511
  301.518
  301.52
  301.557
)
;

boundaryField
{
  floor
  {
    type wallHeatTransfer;
    Tinf uniform 305.2;
    alphaWall uniform 0.24;
    value nonuniform List<scalar> 29
(
  301.857
  301.913
  301.933
  301.964
  301.985
  301.999
  302.014
  302.038
  302.065
  302.094
  302.125
  302.156
  302.187
  302.218
  302.249
  302.279
  302.302
  302.259
  301.857
  301.896
  301.896
  301.742
  301.683
  301.658
  301.857
  301.913
  301.815
  301.76
  301.743
)
;
  }
  ceiling
  {
    type wallHeatTransfer;
    Tinf uniform 303.2;
    alphaWall uniform 0.24;
    value nonuniform List<scalar> 43
(
  298.552
  298.487
  298.474
  300.081
  300.721
  301.096
  301.265
  301.341
  301.385
  301.412
  301.431
  301.448
  301.465
  301.481
  301.497
  301.513
  301.527
  301.542
  301.579
  301.62
  301.618
  301.632
  301.631
  301.633
  301.636
  301.638
  301.64
  301.641
  301.642
  301.64
  301.637
  301.633
  301.63
  301.627
  301.627
  301.635
  301.644
  301.654
  301.664
  301.707
  303.63
  303.299
  296.892
)
;
  }
  sWall
  {
    type wallHeatTransfer;
    Tinf uniform 315.2;
    alphaWall uniform 0.36;
    value uniform 299.728;
  }
  nWall
  {
    type wallHeatTransfer;
    Tinf uniform 307.2;
    alphaWall uniform 0.36;
    value nonuniform List<scalar> 6
(
  302.167
  302.083
  301.973
  302.307
  302.28
  302.298
)
;
  }
  sideWalls
  {
    type empty;
  }
  glass1
  {
    type wallHeatTransfer;
    Tinf uniform 315.2;
    alphaWall uniform 4.3;
    value nonuniform List<scalar> 9
(
  311.795
  310.828
  310.175
  309.662
  309.258
  308.926
  308.647
  308.704
  308.949
)
;
  }
  glass2
  {
    type wallHeatTransfer;
    Tinf uniform 307.2;
    alphaWall uniform 4.3;
    value nonuniform List<scalar> 2
(
  304.78
  304.976
)
;
  }
  sun
  {
    type wallHeatTransfer;
    Tinf uniform 305.2;
    alphaWall uniform 0.24;
    value nonuniform List<scalar> 14
(
  302.248
  301.929
  301.933
  301.923
  301.914
  301.907
  301.9
  301.894
  301.889
  301.883
  301.877
  301.872
  301.866
  301.861
)
;
  }
  heatsource1
  {
    type fixedGradient;
    gradient uniform 0;
  }
  heatsource2
  {
    type fixedGradient;
    gradient uniform 0;
  }
  Table_master
  {
    type zeroGradient;
  }
  Table_slave
  {
    type zeroGradient;
  }
  inlet
  {
    type fixedValue;
    value uniform 290.15;
  }
  outlet
  {
    type zeroGradient;
  }
} 	// ************************************************************************* //

