/*--------------------------------*- C++ -*----------------------------------*=========                 |
  \      /  F ield         | OpenFOAM: The Open Source CFD Toolbox
   \    /   O peration     | Website:  https://openfoam.org
    \  /    A nd           | Version:  6
     \/     M anipulation  |
\*---------------------------------------------------------------------------*/
FoamFile
{
    version     2.0;
    format      ascii;
    class       volScalarField;
    location    "2700";
    object      PMV;
}
// * * * * * * * * * * * * * * * * * * * * * * * * * * * * * * * * * * * * * //

dimensions      [0 0 0 0 0 0 0];

internalField   nonuniform List<scalar> 
459
(
1.6559319483057267
1.4401173374180685
1.413929386700258
1.3909951090535635
1.3750283881662528
1.366165868149844
1.3635014057887496
1.366896245995442
1.3772112698614767
1.3939959170176826
1.4197368510280055
1.4554701146367184
1.502756711776166
1.5392515947286582
1.5435510383054583
1.6080247278335278
1.5951322964739838
1.590356981921998
1.592267129546662
1.5946547732092884
1.5970423712440256
1.5958007954003455
1.591284842347698
1.5906166977384666
1.5919105070246675
1.593308343279916
1.5951462332615667
1.5975389266048163
1.6003829218094145
1.6056103067039282
1.615433053063194
1.6242576889809852
1.6280768854950405
1.6400110616140795
1.6182283958478996
1.4611375695789681
1.4529855152672901
1.4316667587209533
1.4194718299752465
1.4120899406581833
1.4098054892721588
1.4118541016833528
1.4164698346961768
1.4248769990976742
1.4401403147273333
1.4637982395046383
1.4981521624760243
1.5306523163200065
1.5311300675674653
1.5311300675674653
1.5311300675674653
1.572090546674709
1.5855814865429243
1.581760961295076
1.5832225792945647
1.5773242080370198
1.5733086983363762
1.571786049999389
1.5723111840165975
1.573424932107191
1.5742072218764955
1.5743576464079199
1.575061670330392
1.575922077887461
1.5774612996689281
1.5799747322149127
1.587631233035272
1.606114823493875
1.6113669880438775
1.6038365397994039
1.660737638481205
1.464094524338415
1.488382640201206
1.478937041194964
1.4764373370937605
1.4756079507129978
1.477120954187624
1.4779884327850468
1.4732288683389145
1.4662716272852838
1.4630090878070292
1.4685947421414007
1.4868397850939417
1.5178985923211497
1.528263536355494
1.5306523163200065
1.5320855653030259
1.4811610333828886
1.5209946440367446
1.5336087617173237
1.5430496578286503
1.5526188794200175
1.5594693103619168
1.5628623248180133
1.5709311917670443
1.5765787094266435
1.5791675120349553
1.5802943986891527
1.581319077250535
1.5813035980766383
1.5799104112656628
1.5755807084515747
1.5774236845748963
1.5953240728145806
1.5880366507250547
1.5422828284053558
1.7361366313749875
1.4696767234532728
1.5166839563549432
1.5268639916615823
1.544341412642604
1.5603431651341768
1.5722732893740445
1.5671809790968991
1.5408037896575897
1.5044395236466754
1.4741411947704912
1.458219824199705
1.461531444203271
1.4822572209961762
1.5135985242207826
1.5316078172290328
1.515634445153039
1.4752599662567873
1.4742165442533244
1.5018562405196174
1.5277860861019645
1.549484361526354
1.5681562825958146
1.5817853492392195
1.5866391006269256
1.5851341214984185
1.584610179775705
1.5852813614426051
1.586697195534492
1.5900988594596592
1.596848404160709
1.6084784328979582
1.6307263690844451
1.6246531676907787
1.6098641961644637
1.5678846701137963
1.4988520597530213
1.8259894209147047
1.4903957470580609
1.5437134026890191
1.572755903095107
1.6205898188945624
1.6751469603979325
1.6991853895921813
1.652174303099574
1.5807412085336525
1.5116373849299571
1.462097414174852
1.435358339958657
1.4319613790481447
1.4493488518191073
1.4782502935441961
1.5048617535593947
1.5110542747823146
1.5081594705758028
1.5167423313829251
1.5408062474331645
1.5703645414744027
1.597231219150434
1.6201414726516896
1.636745344350763
1.6464670539944644
1.649087726645874
1.6492168570870693
1.6489319779073852
1.6479980806989574
1.6460040200547836
1.6458398909739862
1.6467964018791232
1.6485989935730523
1.635234568955043
1.6086594892555157
1.5505177709582108
1.5440285169067756
1.6734199726484815
1.6603144425572054
1.498548771919719
1.9154774817980307
1.5333287875938142
1.5966977874379857
1.6262134152964511
1.6953686999390378
1.7235133260440052
1.7108604382854697
1.6317262878651628
1.554074675760746
1.4827133312313008
1.430024963904028
1.4030590709918596
1.4037908962348473
1.4271414154615136
1.4646187951938907
1.5051881790130996
1.5357989599955075
1.5573159365298737
1.5810972053595975
1.6114160421795605
1.630463819690655
1.6452617031072936
1.6571940608515785
1.6662617840636722
1.6738971680769057
1.6801005117883776
1.6843949185892684
1.6877348895668765
1.6886891470735694
1.6872577574878656
1.6839177710553928
1.679146175106242
1.6706506279629352
1.6453756727403284
1.61153651496354
1.5503020176375353
1.547421340058534
1.5632903823348345
1.5625506848008195
1.574862028446443
2.005328627878924
1.6284143298435887
1.747738769119338
1.7218260328547583
1.7183503603588524
1.6919195892562922
1.6383605295647923
1.5648729676750432
1.4859029779411714
1.4175635568828575
1.3741336769025037
1.3624107784610244
1.380465983693745
1.4228924859871948
1.480170247992542
1.5416647451605616
1.5831936716252217
1.6070697794124296
1.628554276261426
1.6471709664862122
1.6633983745858159
1.6762831128542548
1.6863034866892037
1.6939374041197042
1.699662465614438
1.7039560473813253
1.7063412905316508
1.7077724088255486
1.7072953716990724
1.7044331006005293
1.698708311301696
1.6915518662283286
1.6834406213222264
1.6717182554191048
1.631431301629593
1.5744571918775445
1.5521748194636764
1.5419592332686056
1.5163670453528217
1.6007352778288266
2.137608806275492
1.9476044848236918
1.902944499387391
1.8040353067286763
1.7447756542032424
1.6623471031370038
1.5578411174186642
1.4512231184993023
1.3633488790942867
1.3098293987380025
1.296768397001361
1.3228406161229846
1.3791270836618181
1.4559808354762511
1.545996080329521
1.588446805365161
1.6209157899378333
1.6471709664862122
1.6676934601913231
1.6834406213222264
1.6953686999390378
1.7049101515273275
1.7120656388482116
1.7173126637740592
1.7206515316312334
1.7225594040750472
1.7235133260440052
1.723036366249146
1.7211285032997674
1.7177896519712161
1.7125426527973138
1.7049101515273275
1.6967999755003866
1.6872577574878656
1.6762831128542548
1.665784554442176
1.6454712334852224
1.634021567876085
1.5738019615688912
1.4898966474363837
2.334800070767972
2.2026886356789452
2.037225017319098
1.8564203206000751
1.6475678180111117
1.4315336030812253
1.261846856150747
1.1583697060037752
1.1250049025496198
1.153479892969808
1.2284900958170324
1.3358002782767968
1.4581919638452727
1.541640190728047
1.5970423712440256
1.640965741865436
1.6691251171699808
1.6886891470735694
1.7030019340746798
1.7139736806560728
1.7225594040750472
1.7239586477252016
1.723120530245516
1.7217131298204775
1.7188555373589218
1.7154321826083754
1.7105668445729547
1.704476539365726
1.696416865747959
1.686809482112451
1.6752780927327533
1.6631354672268863
1.6519025603544824
1.6376364712858427
1.6215245384701094
1.6077818451511108
1.5987520249767815
1.5936000533330998
1.5830665189072508
1.5526983269438916
-2.9740884120579394
-1.83621726721677
-1.1375370750520752
-0.38997033700344597
0.1709263348357186
0.6048926565542432
0.9567231562853848
1.2184150566985972
1.3810467219770288
1.506284939918182
1.5798506560155459
1.6309412006291075
1.652089044426582
1.6681753451050223
1.680873250621969
1.6893519501888097
1.6951951766633713
1.6978586362972765
1.6986995230464204
1.6980513920992746
1.6959967774136877
1.6928763860792804
1.6889943320796401
1.6846902329409497
1.6794601022858906
1.6739066138687464
1.6682897677777335
1.663443409661208
1.659274949349102
1.656665711610057
1.654514635610365
1.653507982797056
1.6531974957948095
1.6547819900509446
1.665327074071964
1.7006724078599222
1.7718325999563738
1.616478477101814
-2.4667760250156
-0.9986937358853527
0.04498448057719965
0.5770907582930157
0.9011679637565639
1.1043620827292084
1.2579485797454475
1.3764982146518485
1.4683778614710676
1.5367771013101026
1.5833871687490746
1.6152226419561573
1.6382533180173509
1.6542981923302424
1.6656175761820105
1.6729653667921232
1.6778126732448981
1.6803274625232432
1.6822791229359566
1.6826842759874567
1.6828008013184603
1.6820929906421518
1.6810444320561824
1.6796756337874694
1.6775732237410579
1.675874695438712
1.6743509637940013
1.673464315689765
1.673806177293849
1.6772702348102457
1.6847232067574722
1.6956294316177545
1.7076390071615755
1.7178352688217056
1.7297287259182739
1.7680292613635353
1.7033583564588752
1.654285854720838
-0.8557829340186337
-0.9947160875502993
-0.8743711161268791
0.3749124524171401
0.8888038049933427
1.1044385010573314
1.237500785765551
1.3401158135290598
1.4225301288526586
1.4898844816756494
1.5436839216305112
1.5855067635000448
1.61538685425462
1.6358828136612653
1.6489506449663502
1.656830685136965
1.6606254782670744
1.6620692775343422
1.6618150658637356
1.6613799470534996
1.6610620847147632
1.660901967746458
1.661081994209151
1.6615611792774718
1.6618078446455566
1.662351429538863
1.6638093572609902
1.6654164521510844
1.6680616885355126
1.6727371544624894
1.679647049307105
1.6910521137194254
1.7122771396334662
1.750256869979238
1.7783472326659078
1.784543709262323
1.7514425512998077
1.7097104714981222
1.6682491670575843
1.6728457202753235
)
;

boundaryField
{
    ".*"
    {
        type            zeroGradient;
    }
}


// ************************************************************************* //
