/*--------------------------------*- C++ -*----------------------------------*=========                 |
  \      /  F ield         | OpenFOAM: The Open Source CFD Toolbox
   \    /   O peration     | Website:  https://openfoam.org
    \  /    A nd           | Version:  6
     \/     M anipulation  |
\*---------------------------------------------------------------------------*/
FoamFile
{
    version     2.0;
    format      ascii;
    class       volScalarField;
    location    "2700";
    object      PPD;
}
// * * * * * * * * * * * * * * * * * * * * * * * * * * * * * * * * * * * * * //

dimensions      [0 0 0 0 0 0 0];

internalField   nonuniform List<scalar> 
459
(
59.37113511781522
47.65402803155772
46.249138850195585
45.02629718427161
44.17966123719027
43.71153422312089
43.571058432562594
43.75006276468476
44.295165818645096
45.18586143882621
46.55994868306687
48.4813057445164
51.04241753532756
53.027932634157786
53.26211497467158
56.77322709135838
56.07182909447462
55.81188052312174
55.91586965269794
56.045837956135344
56.175784880201974
56.10821356686461
55.86239494178865
55.82602018154764
55.89645582591789
55.97254901712453
56.072587649142676
56.20280780387665
56.35756274667673
56.64192548971459
57.17593382182881
57.65524177916861
57.86253388708989
58.509630331367
57.32781061935003
48.78729490418515
48.347259092455495
47.19977383297117
46.54575540109231
46.15078702193746
46.028705534806036
46.138180450704844
46.38504647836782
46.8354083625082
47.65526426851932
48.931049985796854
50.79233172760701
52.559668384157185
52.5856787790433
52.5856787790433
52.5856787790433
54.817014478692116
55.55185613997723
55.34378928531893
55.423393235547614
55.10212528228147
54.883378164863316
54.8004255401727
54.82903470781594
54.88971037229835
54.93232767373714
54.940522356667714
54.97887508971414
55.025746106285226
55.10959300034717
55.24650015685979
55.66347165717042
56.66936439999961
56.95494179909147
56.54544769550109
59.63072955443821
48.94706215200774
50.26214915190693
49.750164078651885
49.614782870755874
49.569875081675036
49.651801961613096
49.698782762981125
49.44108844403936
49.064743819547196
48.88840562632104
49.190364211958894
50.178477256197475
51.86558795421623
52.42962517591577
52.559668384157185
52.637701238440926
49.87065346854448
52.034027029989595
52.72063742193819
53.234804039526104
53.756113275471805
54.129357617341675
54.31422927328577
54.75385245148966
55.06151561536173
55.202531935417234
55.26391163413666
55.31972212369849
55.31887904518793
55.24299672351062
55.00715000907323
55.107544016784566
56.08226708364612
55.68554671953681
53.193034536739674
63.66671791497378
49.24888735856487
51.79951685224502
52.3534432639765
53.30516866857782
54.17697045863029
54.82697022758879
54.5495312742649
53.1124736851973
51.133845267426885
49.49046989813343
48.629725835116574
48.80857170575546
49.930055392837296
51.631710513316165
52.61168973395594
51.74243282479974
49.5510348190996
49.49454863966829
50.993500997306946
52.40363526090272
53.58533999258405
54.60266936371021
55.34511756019541
55.6094480714403
55.52749424113639
55.49896164534821
55.535512454439534
55.61261152439317
55.7978274180417
56.16522880436139
56.79789761231345
58.006281856377264
57.676711243918504
56.87324343154947
54.58787099117892
50.83033721184643
68.34416728415648
50.3713480532184
53.27095929182587
54.85326264707456
57.45607739716592
60.40768407900098
61.69847103425732
59.168002508076654
55.28824798291043
51.52507272947184
48.83914747835245
47.39811051239084
47.21559693447447
48.15116934073557
49.71296573889321
51.156787551152796
51.493369299124424
51.33600427217534
51.80269206864004
53.11260755288219
54.72298066578793
56.18606223192538
57.43172679519605
58.33265950247779
58.85923555021655
59.00105141190759
59.00803768403892
58.99262483177298
58.94209314577085
58.83417271280039
58.82528839456498
58.87706120353736
58.97460844670614
58.25076264678364
56.807742406488686
53.64164067802914
53.288124324544505
60.314682354383294
59.60787828774774
50.81386786792246
72.79462770304963
52.705392711225585
56.157031850026
57.76140321160215
61.494019945496476
62.996738962089395
62.322613542162976
58.06052008590294
53.83543004110536
49.954774427607205
47.111617325500816
45.668598736863636
45.70763065191887
46.956863345366415
48.97539734237129
51.17452485224386
52.83990151388902
54.01202942772855
55.30763774933653
56.95760841034324
57.992039341141314
58.793989250207346
59.439333533159655
59.928851396153775
60.34038361855523
60.67425385561577
60.905118667560565
61.08451809449642
61.13574843424798
61.0588984520315
60.87947848360188
60.62291944394939
60.165478544101866
58.80015900902268
56.96415732997535
53.629886234571174
53.47294905553607
54.337552303529634
54.29724931168746
54.96799937490899
76.99086953786644
57.880844580222075
64.2800638631208
62.906987390956985
62.7219646671216
61.309092152521316
58.42019736948631
54.42378017294774
50.12768053692838
46.44358419206929
44.13234150470711
43.51359422831688
44.46753045422503
46.72901893053249
49.816970981376805
53.15936805232953
55.421818884560146
56.72129801841926
57.88843825020367
58.89733305274264
59.77436025856192
60.46884979393936
61.007650276408235
61.417298474477896
61.724012957422175
61.953742700779635
62.081253661457346
62.157719496621496
62.132234305333576
61.97925163245367
61.67292587173232
61.289367107626084
60.853835408748004
60.22300901908548
58.044519976382645
54.945945282500794
53.73191968373219
53.17540849090116
51.78227923457642
56.37673393078934
82.56012646892947
74.3294171551942
72.18626555842658
67.2180478988952
64.12364974301607
59.71761944635875
54.040644200955654
48.25221342753723
43.5630206759123
40.7698916116514
40.09721883110618
41.44366916577718
44.3966034463039
48.50886719237231
53.39530573616361
55.707879263871355
57.473780810747876
58.89733305274264
60.00606353570082
60.853835408748004
61.494019945496476
62.004757205216386
62.38693034564294
62.66668756885778
62.84448574859771
62.946002944453376
62.996738962089395
62.97137284396457
62.869870665621406
62.6920983503197
62.41238069974929
62.004757205216386
61.57071304550778
61.0588984520315
60.46884979393936
59.90310902743108
58.805332117164035
58.18499556575239
54.910250145503895
50.34427237175522
89.29688145091583
84.99984265780662
78.40425270872316
69.88417501376884
58.918809790901236
47.192622814273335
38.31801111689606
33.23506034009952
31.664230390360757
33.002630499278965
36.646913225467415
42.1182559846671
48.62822166126265
53.15803060692178
56.175784880201974
58.5613493596923
60.08325299604667
61.13574843424798
61.90271480415637
62.48871045860575
62.946002944453376
63.02041916402519
62.97584919753807
62.90098015526245
62.74886888628256
62.56647369741882
62.30694232707042
61.98157422421937
61.55018728223441
61.03482567711573
60.41474444527092
59.760171270624944
59.15330750840333
58.38095816846872
57.506840122595726
56.76001978818264
56.26882179227805
55.988427890653995
55.414893952902304
53.760441808618005
98.99443665802282
68.86457930796198
32.25006165675302
8.167655147274616
5.60556012421543
12.67267727122146
24.3314794576235
36.14800315013295
44.4983035705223
51.23412472466308
55.23974196772039
58.017935469049206
59.16339205665784
60.032047355738875
60.715812128217905
61.17132495573289
61.48472005880925
61.62742232613988
61.67245527532447
61.63774604294101
61.527678063471946
61.36040749275383
61.152130191547464
60.92098639967374
60.639806978603524
60.34089233371171
60.03821680375732
59.77679071043276
59.55174142622773
59.4107859459978
59.29453262528588
59.240114056530544
59.223327587955154
59.30898394821807
59.87842974082114
61.77807339063057
65.5456519274669
57.232738910198734
92.7023426175269
26.062474515728056
5.041893396491346
11.977425978902787
22.146735577152242
30.710549488311756
38.1212356229573
44.257426689894345
49.178634592868455
52.89316854971016
55.43235696608101
57.16450002486221
58.41438745976736
59.28283272160459
59.89410145077945
60.290195383825896
60.55117164971548
60.68646010994759
60.79140241113691
60.81318209445017
60.81944574335581
60.78139589522599
60.72501739172947
60.651400704198565
60.5382861120948
60.44686399091616
60.36482223647235
60.31707073283475
60.335483142911144
60.52198036763864
60.92275807148475
61.50799296548143
62.15059299044712
62.6945283297541
63.326953072667514
65.34664172160738
61.921778493578415
59.28216579555443
20.45469761306508
25.895520017224513
21.13746796731209
7.92650169350479
21.67740980471433
30.71405362332527
37.095451424779895
42.34363414630012
46.70959838001612
50.343612411515
53.269353395589626
55.547787024076385
57.17342338627976
58.28590508330073
58.993634799512165
59.41970002398397
59.62467342272344
59.70262236665485
59.68889929524451
59.66540884515258
59.64824744789234
59.639602348911
59.64932239149179
59.67519312943565
59.688509463857
59.71785298025189
59.796539398624475
59.88325151070286
60.025919077007025
60.2779020499919
60.649863138441326
61.26255706057775
62.398215069734924
64.41285943360606
65.88582736099966
66.20854418886077
64.4753469297629
62.26122422311002
60.03602770778299
60.283750341351485
)
;

boundaryField
{
    ".*"
    {
        type            zeroGradient;
    }
}


// ************************************************************************* //
