/*--------------------------------*- C++ -*----------------------------------*\
  =========                 |
  \\      /  F ield         | OpenFOAM: The Open Source CFD Toolbox
   \\    /   O peration     | Website:  https://openfoam.org
    \\  /    A nd           | Version:  6
     \\/     M anipulation  |
\*---------------------------------------------------------------------------*/
FoamFile
{
    version     2.0;
    format      ascii;
    class       volScalarField;
    location    "1700";
    object      epsilon;
}
// * * * * * * * * * * * * * * * * * * * * * * * * * * * * * * * * * * * * * //

dimensions      [0 2 -3 0 0 0 0];

internalField   nonuniform List<scalar> 
459
(
0.000530118
0.000697691
0.000740877
0.000856889
0.000976298
0.00109979
0.00123375
0.0013629
0.00145254
0.0014805
0.00143107
0.0013015
0.0011038
0.000869991
0.000647177
4.94556e-05
8.66159e-05
0.000124375
0.000125164
0.000113811
9.91239e-05
8.1794e-05
6.65906e-05
5.45372e-05
4.51537e-05
3.78134e-05
3.20096e-05
2.73776e-05
2.36269e-05
2.04945e-05
1.7756e-05
1.52009e-05
1.36825e-05
1.04871e-05
0.00132836
0.00186988
0.000660366
0.000643646
0.000681108
0.000741181
0.000827684
0.000931207
0.00102036
0.00106673
0.00105213
0.000974399
0.000844013
0.000688959
0.000568828
0.000703573
0.000156229
5.80731e-05
0.000137616
0.000148985
0.000137373
0.00011809
9.96139e-05
9.04711e-05
7.3202e-05
5.78894e-05
4.57838e-05
3.6473e-05
2.93432e-05
2.38778e-05
1.96966e-05
1.66083e-05
1.47182e-05
1.3918e-05
3.50768e-05
2.39828e-05
0.00239677
0.00448886
0.000824273
0.000623642
0.000663791
0.00075967
0.000896423
0.00105189
0.00117798
0.00124063
0.00122772
0.00114509
0.001005
0.000841888
0.000696366
0.000629299
0.000784563
0.000408087
0.000305459
0.000236724
0.00018628
0.000148521
0.000126173
0.000233713
0.000160068
0.000113518
8.33369e-05
6.31534e-05
4.92388e-05
3.93957e-05
3.23277e-05
2.729e-05
2.06781e-05
1.7396e-05
6.6466e-05
3.79347e-05
0.00383778
0.0091919
0.00131274
0.000653627
0.000676065
0.000820181
0.00104254
0.00126985
0.00142212
0.00147911
0.0014468
0.00134012
0.00116585
0.000973928
0.000803702
0.00069208
0.000676568
0.0012794
0.000732721
0.000446513
0.000302131
0.000219466
0.000168021
0.000144336
0.000333175
0.000250783
0.000200831
0.000167181
0.000141373
0.000120428
0.000102297
8.53647e-05
6.82818e-05
3.99645e-05
2.65621e-05
0.000113525
5.12889e-05
0.00579601
0.0162076
0.00259657
0.000832331
0.000759036
0.000976661
0.00137592
0.0016635
0.00179673
0.0018104
0.00173303
0.00157755
0.00135806
0.0011084
0.000868704
0.000673189
0.000541473
0.000490715
0.000403432
0.000321021
0.000253762
0.000201179
0.000161235
0.000134427
0.000129458
0.000119881
0.000110316
0.000100808
9.08931e-05
8.07979e-05
7.09768e-05
6.17723e-05
5.32947e-05
4.19414e-05
3.22179e-05
8.02958e-05
5.73823e-05
9.23139e-05
0.000157758
0.000221716
0.00848909
0.0238966
0.00580016
0.00171524
0.00130793
0.00171589
0.0021958
0.00236762
0.00237178
0.0022884
0.00213716
0.00191071
0.00161381
0.00127868
0.000954997
0.000689548
0.000506777
0.00040229
0.000335325
0.000279196
0.000228169
0.000184944
0.000151334
0.000128455
0.000117089
0.000111804
0.000108217
0.000103869
9.74407e-05
8.7986e-05
7.62997e-05
6.46661e-05
5.41924e-05
4.48515e-05
3.93147e-05
5.77808e-05
5.92543e-05
7.14284e-05
0.000294619
0.000255956
0.0114841
0.0284253
0.0117134
0.0054415
0.0041272
0.00409028
0.00384722
0.00353709
0.0032439
0.00297766
0.00269716
0.00235408
0.00193747
0.00148347
0.0010552
0.000716062
0.000492587
0.000367435
0.000296275
0.000243845
0.000199063
0.000163132
0.000137607
0.000122741
0.000117517
0.000118226
0.00012086
0.000123278
0.00012402
0.000121083
0.000110169
9.69757e-05
8.41214e-05
7.31155e-05
6.93487e-05
8.09123e-05
0.000105564
0.000178413
0.000417873
0.000392886
0.0120606
0.0297027
0.0171728
0.0122963
0.00965349
0.00751948
0.00600265
0.00500257
0.00435412
0.0038843
0.0034374
0.00291304
0.00230468
0.0016734
0.00110372
0.000686343
0.000436922
0.000307741
0.000241173
0.000196519
0.000162508
0.000138695
0.000124811
0.000119773
0.000121885
0.00012891
0.000139112
0.000151986
0.000167581
0.000185667
0.000204688
0.000213191
0.000224215
0.000248152
0.00029845
0.000463182
0.000899674
0.00181818
0.00535968
0.0014407
0.0110682
0.0181226
0.0145551
0.0111656
0.00878883
0.0073091
0.00643042
0.00590635
0.00551495
0.00505589
0.00439376
0.00351131
0.00255003
0.00165631
0.000918296
0.000503783
0.000318782
0.000230648
0.000182276
0.000150652
0.000129521
0.000117249
0.000112595
0.000114212
0.000120866
0.000131742
0.000146809
0.000166969
0.000193955
0.000230349
0.000279677
0.000347355
0.000441501
0.000586479
0.00079939
0.00108616
0.00140811
0.00167615
0.00187046
0.00112346
0.00367966
0.00652213
0.00841866
0.00892645
0.00892062
0.00844426
0.00742699
0.00598653
0.00433116
0.00268599
0.00160788
0.000927004
0.000527189
0.000324087
0.000226187
0.000175717
0.000146174
0.000126993
0.000114597
0.000107845
0.000105953
0.000108066
0.000113594
0.000122379
0.000134776
0.000151743
0.000175001
0.000207372
0.000253299
0.000318722
0.00041079
0.000538594
0.000704394
0.000887949
0.00103267
0.00106641
0.000936061
0.000587136
0.00371787
0.00856638
0.00851563
0.00703678
0.00605582
0.00504529
0.00395614
0.00289037
0.00194657
0.0012049
0.000730765
0.000453881
0.0003032
0.000225576
0.000184861
0.000161184
0.000145404
0.000133942
0.000125519
0.000119736
0.000116831
0.000116869
0.000119978
0.000126545
0.000137277
0.000153247
0.000176042
0.000207982
0.000252371
0.000313834
0.000398561
0.000512678
0.000656462
0.000820023
0.000941489
0.00104797
0.000803978
0.000609232
0.00267385
0.00319212
0.00360477
0.00452515
0.00399764
0.00355277
0.0032047
0.00274239
0.00219486
0.00164253
0.0011488
0.000764533
0.000506727
0.000349398
0.000255776
0.000198582
0.000162082
0.000138123
0.000122664
0.00011357
0.000109493
0.000109605
0.0001127
0.00011839
0.000126633
0.000137621
0.000151776
0.000169815
0.000192939
0.00022275
0.000260311
0.000307722
0.000367632
0.000443502
0.000539014
0.00068532
0.000731591
0.000678582
0.000550664
0.000432291
)
;

boundaryField
{
    floor
    {
        Cmu             0.09;
        kappa           0.41;
        E               9.8;
        type            epsilonWallFunction;
        value           nonuniform List<scalar> 
29
(
0.000647177
4.94556e-05
8.66159e-05
0.000124375
0.000125164
0.000113811
9.91239e-05
8.1794e-05
6.65906e-05
5.45372e-05
4.51537e-05
3.78134e-05
3.20096e-05
2.73776e-05
2.36269e-05
2.04945e-05
1.7756e-05
1.52009e-05
1.36825e-05
1.04871e-05
1.04871e-05
2.39828e-05
3.79347e-05
5.12889e-05
0.000647177
4.94556e-05
5.80731e-05
0.000408087
0.0012794
)
;
    }
    ceiling
    {
        Cmu             0.09;
        kappa           0.41;
        E               9.8;
        type            epsilonWallFunction;
        value           nonuniform List<scalar> 
43
(
0.00267385
0.00319212
0.00360477
0.00452515
0.00399764
0.00355277
0.0032047
0.00274239
0.00219486
0.00164253
0.0011488
0.000764533
0.000506727
0.000349398
0.000255776
0.000198582
0.000162082
0.000138123
0.000122664
0.00011357
0.000109493
0.000109605
0.0001127
0.00011839
0.000126633
0.000137621
0.000151776
0.000169815
0.000192939
0.00022275
0.000260311
0.000307722
0.000367632
0.000443502
0.000539014
0.00068532
0.000731591
0.000678582
0.000550664
0.000432291
0.0110682
0.0181226
0.00371787
)
;
    }
    sWall
    {
        Cmu             0.09;
        kappa           0.41;
        E               9.8;
        type            epsilonWallFunction;
        value           uniform 0.00267385;
    }
    nWall
    {
        Cmu             0.09;
        kappa           0.41;
        E               9.8;
        type            epsilonWallFunction;
        value           nonuniform List<scalar> 6(0.000221716 0.000255956 0.000392886 0.000587136 0.000609232 0.000432291);
    }
    sideWalls
    {
        type            empty;
    }
    glass1
    {
        Cmu             0.09;
        kappa           0.41;
        E               9.8;
        type            epsilonWallFunction;
        value           nonuniform List<scalar> 9(0.000530118 0.00132836 0.00239677 0.00383778 0.00579601 0.00848909 0.0114841 0.0120606 0.0110682);
    }
    glass2
    {
        Cmu             0.09;
        kappa           0.41;
        E               9.8;
        type            epsilonWallFunction;
        value           nonuniform List<scalar> 2(0.0014407 0.00112346);
    }
    sun
    {
        Cmu             0.09;
        kappa           0.41;
        E               9.8;
        type            epsilonWallFunction;
        value           nonuniform List<scalar> 
14
(
0.000530118
0.000697691
0.000740877
0.000856889
0.000976298
0.00109979
0.00123375
0.0013629
0.00145254
0.0014805
0.00143107
0.0013015
0.0011038
0.000869991
)
;
    }
    heatsource1
    {
        Cmu             0.09;
        kappa           0.41;
        E               9.8;
        type            epsilonWallFunction;
        value           nonuniform List<scalar> 3(9.23139e-05 0.000157758 0.000221716);
    }
    heatsource2
    {
        Cmu             0.09;
        kappa           0.41;
        E               9.8;
        type            epsilonWallFunction;
        value           nonuniform List<scalar> 4(0.000703573 0.000156229 0.000156229 0.000784563);
    }
    Table_master
    {
        Cmu             0.09;
        kappa           0.41;
        E               9.8;
        type            epsilonWallFunction;
        value           nonuniform List<scalar> 9(0.000233713 0.000160068 0.000113518 8.33369e-05 6.31534e-05 4.92388e-05 3.93957e-05 3.23277e-05 2.729e-05);
    }
    Table_slave
    {
        Cmu             0.09;
        kappa           0.41;
        E               9.8;
        type            epsilonWallFunction;
        value           nonuniform List<scalar> 9(0.000333175 0.000250783 0.000200831 0.000167181 0.000141373 0.000120428 0.000102297 8.53647e-05 6.82818e-05);
    }
    inlet
    {
        type            turbulentMixingLengthDissipationRateInlet;
        mixingLength    0.01;
        phi             phi;
        k               k;
        value           uniform 0.000101881;
    }
    outlet
    {
        type            zeroGradient;
    }
}


// ************************************************************************* //
