/*--------------------------------*- C++ -*----------------------------------*=========                 |
  \      /  F ield         | OpenFOAM: The Open Source CFD Toolbox
   \    /   O peration     | Website:  https://openfoam.org
    \  /    A nd           | Version:  6
     \/     M anipulation  |
\*---------------------------------------------------------------------------*/
FoamFile
{
    version     2.0;
    format      ascii;
    class       volScalarField;
    location    "1700";
    object      PPD;
}
// * * * * * * * * * * * * * * * * * * * * * * * * * * * * * * * * * * * * * //

dimensions      [0 0 0 0 0 0 0];

internalField   nonuniform List<scalar> 
459
(
59.01151213291612
47.25401287694157
45.83599353732071
44.58513388583492
43.77209531834815
43.28931626658383
43.17117167535618
43.408016155202354
43.93889807411087
44.90840876095776
46.34594842252341
48.37023297966037
51.046881967538184
52.69251905956087
52.97869237301477
56.67218872390357
55.94468561124744
55.68469625220067
55.788701064027855
55.94468561124744
56.10064088364944
56.015120844539
55.77468027854623
55.72849404367205
55.79375848738996
55.86606845941505
55.9882028355289
56.14101947977334
56.31875242949448
56.626399006069775
57.13356186595109
57.735816093893504
57.943070596261
58.615890306182145
56.93660872773208
48.38995542320188
47.91059235323013
46.79072509870625
46.11462529734867
45.73230532181387
45.63290817803893
45.74349991538544
45.99929359469931
46.49201284696912
47.33344734509281
48.71756547303435
50.676788230983476
52.198375002831284
52.27638241358548
52.30238626603001
52.35439598170241
54.82604881044535
55.398626895077264
55.19053101748012
55.30045328277405
54.973917302110394
54.74051067232255
54.674904085804016
54.72513068267736
54.81049396574543
54.85249735921191
54.88523057633471
54.94826757856845
54.99444185033084
55.077993451259076
55.2402530233411
55.68222047530087
56.722291475292
57.06157777570086
56.69086113070513
59.18867391100041
48.54939479262514
49.85601534540263
49.34991088642088
49.1932646308082
49.160234843136365
49.26464024810184
49.27595323625815
49.00917734309961
48.59710417497046
48.44253124685929
48.82547238437049
49.914562376854676
51.73277061483937
52.09437518571383
52.25037924529622
52.328390792206996
49.73503726703763
51.835819991253324
52.49191735924929
52.99818627750995
53.57157955662066
53.966227781053995
54.15091985233725
54.61160844971046
54.96338796545964
55.139895839827965
55.232118014509766
55.2921596903179
55.320502913899574
55.27283643836063
55.06348501314029
55.161416106589485
56.124931317969356
55.762106680823386
53.35120050542879
63.24769044313481
48.848069509951415
51.39400583891291
51.966460283454005
52.96109121177938
53.82284024137627
54.46166505326379
54.09711297174026
52.5197894661712
50.51018519139013
48.8857693166391
48.111441221236404
48.40066549654656
49.64247543956936
51.39079321477043
52.30238626603001
51.2193207499768
49.04458337386907
49.101730256404636
50.61751292414331
52.07155872055031
53.28898544113015
54.37790783680712
55.176063887297204
55.51770666209116
55.464474663199745
55.44030082802219
55.512360246283855
55.62593776039232
55.84733038139442
56.22179446372691
56.885030703320766
58.12312391209424
57.79020650928239
56.971649441668994
54.69582812754175
50.9704301876375
67.90023239394677
49.96484806890924
52.89031856252581
54.53246150777195
57.215678457037605
60.23758924111717
61.34337417885145
58.45573015939505
54.46013931407157
50.7062274033941
48.09827238352132
46.789451913822184
46.7649887421636
47.82123137936716
49.44376905310042
50.87444348410864
51.12820062643436
50.94511301510434
51.45386551270995
52.810049916372336
54.44044237778794
55.96207817304374
57.25275512815761
58.23500226402344
58.842752750937635
59.003914162425424
59.076751252574454
59.076652448445856
59.06416106940339
58.99161163218364
58.98803181504856
59.04077172168616
59.13572372393915
58.40274825912422
56.94415272600486
53.755947562398156
53.40846522721448
60.49736300124328
59.86149610782592
51.054311219862335
72.39530558425616
52.29260582495579
55.77733839882673
57.479313060817496
61.240998695010006
62.82191410196311
61.61392583714496
57.23852698667807
52.936942777659674
49.08651690386213
46.32696886035858
45.045356797820496
45.26584163055366
46.659797841564696
48.80386915296764
51.00636048061499
52.65097732736361
53.76861608761856
55.072869349124836
56.76152555806083
57.91716943799364
58.77097793284028
59.44216324437527
59.98315779457599
60.4459901534944
60.779716234019794
61.03610227873179
61.21539718505774
61.29219256990531
61.240998695010006
61.06172479658055
60.8053678367446
60.38553853352558
58.98622293949127
57.113727500444945
53.77973305212839
53.59991339813638
54.52468449185979
54.492115276565876
55.17596488560356
76.61395329336028
57.4995823878118
63.95187929136586
62.65388726395055
62.46475558153669
60.819527325241516
57.72079882207257
53.580918358517295
49.211274297469494
45.57955958934835
43.40515382903009
42.970265181566816
44.12738982899398
46.5602523433148
49.78790013527337
53.21602387778867
55.34660623332694
56.67218872390357
57.83945618261307
58.90016280092328
59.77718967601814
60.52304533778413
61.11296091606242
61.54797621303443
61.88001861014088
62.109567197842914
62.2624464282362
62.33883921594552
62.3133784510035
62.18602232456433
61.88001861014088
61.496844538900994
61.06172479658055
60.43791872465174
58.25375916518308
55.12894491030727
53.905698633247546
53.3493716233053
51.98595628922371
56.563440652094066
82.25323245905757
74.01783208362414
71.8646140070716
66.89697312307393
63.63734716088454
58.97590261743385
53.082552145783175
47.19288512764506
42.568910872766494
39.9511641224134
39.52059986592133
41.09980593785359
44.286305369614354
48.611118571350694
53.60322007722289
55.73670011201274
57.52846167762255
58.95182246276559
60.060354720543586
60.933582740910886
61.62464988194792
62.16054071486125
62.5678267559563
62.84730256710663
63.05027515042269
63.177009377422294
63.202344659006904
63.177009377422294
63.10098036188002
62.92344554762135
62.64409135307716
62.23697519210066
61.803442322510904
61.26659716025742
60.677081446972444
60.08608195779677
59.0073731978968
58.380206139354925
55.112464027019406
50.57021461313655
89.06515394481087
84.75310213353006
78.13074460899102
69.45665857836578
57.79780424451054
45.78481335675928
36.98310934844466
32.180013795336464
30.908041114076923
32.56225230362189
36.5321351779874
42.25801948086236
49.0116891982764
53.26491429256273
56.38647511204039
58.745134924217275
60.24039136742055
61.29219256990531
62.058580023030764
62.669505615723004
63.126327218070095
63.22009003873411
63.17972233201114
63.10975732276318
62.98923798495335
62.815058967680365
62.56374157882255
62.22035525646345
61.79453563519641
61.283142595900685
60.66531856069067
60.01536724601891
59.380159123966685
58.61013134276451
57.74077615019536
56.99984470925947
56.514799139635016
56.238605641211535
55.63763875816555
54.0215214401733
99.00833743470203
70.9338598534184
33.1464997742755
8.214407296141545
5.650524507442569
12.975782615804064
24.935354606844328
36.55298038267871
45.008483628270454
51.60055278700121
55.52866808743296
58.166589836630294
59.194814416375436
60.12397757813986
60.81439461481683
61.31799536313721
61.64734377593412
61.830603377536136
61.88664168089452
61.85734975059093
61.75194271881128
61.59049073617495
61.38943766481486
61.166496002815066
60.89374204112317
60.57684252824482
60.28149505639969
60.025979259974434
59.80542049442554
59.665490959377834
59.54985748935447
59.49679033196594
59.455065914005964
59.57023802181853
60.13976430281397
62.032171151680686
65.8058132657336
57.53968861113243
92.8759879431364
26.241105940225765
5.049390742906908
12.202153523158074
22.337797987388143
30.970264944759307
38.40243921498736
44.5711849261466
49.48437149442571
53.1551607727234
55.63908582894679
57.39149297216105
58.63122931318007
59.509797758802186
60.10149442150746
60.52990398163477
60.79587797267329
60.96075230758118
61.038458214239576
61.088155409532625
61.07227765284843
61.03934298065535
60.98862202661464
60.89469455111992
60.81431380457661
60.702690608527845
60.62685247114696
60.58464815054921
60.60732404514608
60.76973102698328
61.171039486239934
61.75553520759986
62.398197857585686
62.94321080669317
63.57513209197172
65.5870470127908
62.16588481214232
59.57606994857514
20.00933363116546
25.372650217287784
20.69604869707375
8.1598454544406
22.14677587959676
31.226028889838815
37.57101097839474
42.789035683182156
47.14259693365428
50.72992421613198
53.659078160416065
55.882010499331976
57.481751896622654
58.57420004340664
59.295393611117056
59.740027892109666
59.96585109509527
60.062591733017186
60.06235822521959
60.04589380845803
60.03020838887218
60.022675417855496
60.034142123313984
60.03338606841738
60.04641923753903
60.10173480029238
60.15145688032028
60.23546362308122
60.37412251839237
60.59256875747457
60.95797281222137
61.58966726822695
62.6889170348984
64.68547812791171
66.11212123755445
66.43423289049841
64.70666830350969
62.54419721206851
60.32940394095629
60.589796164985025
)
;

boundaryField
{
    ".*"
    {
        type            zeroGradient;
    }
}


// ************************************************************************* //
