// -*- C++ -*-
// File generated by PyFoam - sorry for the ugliness

FoamFile
{
 version 2.0;
 format ascii;
 class volVectorField;
 location "1700";
 object U;
}

dimensions [ 0 1 -1 0 0 0 0 ];

internalField nonuniform List<vector> 459
(
  (0.0326125 0.088485 0)
  (-0.172232 0.0267006 0)
  (-0.197842 0.0178792 0)
  (-0.228624 0.0117372 0)
  (-0.250058 0.00503565 0)
  (-0.26113 -0.00197379 0)
  (-0.260323 -0.00929052 0)
  (-0.24714 -0.0168548 0)
  (-0.222614 -0.0238287 0)
  (-0.18902 -0.02908 0)
  (-0.149983 -0.0317909 0)
  (-0.109436 -0.0316512 0)
  (-0.0710844 -0.0289178 0)
  (-0.039957 -0.0248986 0)
  (-0.0311605 -0.0214127 0)
  (-0.0044139 0.00903507 0)
  (-0.0292536 -0.0194153 0)
  (-0.003876 -0.0298088 0)
  (0.0212 -0.0225156 0)
  (0.0388271 -0.0153376 0)
  (0.0524884 -0.00989237 0)
  (0.0608447 -0.0058679 0)
  (0.065096 -0.00375409 0)
  (0.0670062 -0.00286177 0)
  (0.0679763 -0.0024413 0)
  (0.0685907 -0.00216668 0)
  (0.0689343 -0.00193974 0)
  (0.0689354 -0.00166984 0)
  (0.0683753 -0.00117343 0)
  (0.0666586 -5.12991e-05 0)
  (0.0625177 0.00225389 0)
  (0.0545755 0.00470267 0)
  (0.0470583 0.00681709 0)
  (-0.0133243 0.0231955 0)
  (0.208672 0.180777 0)
  (-0.158982 0.0703187 0)
  (-0.158145 0.0532524 0)
  (-0.189634 0.0403042 0)
  (-0.210694 0.0257729 0)
  (-0.221899 0.00971836 0)
  (-0.22166 -0.00791267 0)
  (-0.209528 -0.02606 0)
  (-0.187124 -0.0421301 0)
  (-0.157052 -0.0536554 0)
  (-0.122902 -0.059197 0)
  (-0.0881847 -0.0585343 0)
  (-0.0560336 -0.0522261 0)
  (-0.0296878 -0.0418391 0)
  (-0.0133371 -0.0296183 0)
  (0.000165203 -0.0118206 0)
  (-0.00148028 0.0169984 0)
  (0.0705333 0.0377191 0)
  (0.0302015 -0.0208862 0)
  (0.0386435 -0.0346816 0)
  (0.0509352 -0.0302531 0)
  (0.0606746 -0.0213687 0)
  (0.067485 -0.0129819 0)
  (0.0703667 -0.0054595 0)
  (0.0708606 -0.00124718 0)
  (0.0707683 0.000502725 0)
  (0.0708589 0.00127268 0)
  (0.0710544 0.001736 0)
  (0.0711951 0.0021216 0)
  (0.0712325 0.00261869 0)
  (0.0711088 0.003588 0)
  (0.0702595 0.00599304 0)
  (0.0660957 0.0126537 0)
  (0.0556392 0.0182589 0)
  (0.0506223 0.0221666 0)
  (-0.0543626 0.0499006 0)
  (0.36967 0.269968 0)
  (-0.173635 0.111273 0)
  (-0.118225 0.0856186 0)
  (-0.148165 0.0628472 0)
  (-0.16656 0.0390418 0)
  (-0.176423 0.0130904 0)
  (-0.175076 -0.0153083 0)
  (-0.162116 -0.0439494 0)
  (-0.140346 -0.0682877 0)
  (-0.112993 -0.084659 0)
  (-0.0835575 -0.0914874 0)
  (-0.054729 -0.0891864 0)
  (-0.0284576 -0.0788237 0)
  (-0.00664005 -0.0623588 0)
  (0.00946509 -0.0407695 0)
  (0.0203671 -0.0151516 0)
  (0.025306 0.0222615 0)
  (0.120897 -0.0348951 0)
  (0.0802518 -0.0441603 0)
  (0.0744783 -0.043061 0)
  (0.0764637 -0.0359858 0)
  (0.0780815 -0.0265583 0)
  (0.0793138 -0.0183208 0)
  (0.077774 -0.0145149 0)
  (0.072929 -0.0101059 0)
  (0.0694858 -0.00770089 0)
  (0.0679449 -0.00631871 0)
  (0.0672883 -0.00542874 0)
  (0.0669575 -0.00480401 0)
  (0.0669634 -0.00423108 0)
  (0.0678121 -0.00331054 0)
  (0.0707869 4.93048e-05 0)
  (0.0684492 0.0182122 0)
  (0.0538255 0.0308936 0)
  (0.0569108 0.0394012 0)
  (-0.0912031 0.0771887 0)
  (0.514478 0.341448 0)
  (-0.206248 0.147338 0)
  (-0.0768489 0.112819 0)
  (-0.104153 0.081603 0)
  (-0.116821 0.0506832 0)
  (-0.122327 0.0161371 0)
  (-0.115983 -0.0230223 0)
  (-0.100001 -0.0619666 0)
  (-0.0786491 -0.0931072 0)
  (-0.0552817 -0.112456 0)
  (-0.0326083 -0.119183 0)
  (-0.0118373 -0.114914 0)
  (0.00693398 -0.100786 0)
  (0.0223733 -0.0803139 0)
  (0.0359896 -0.0554858 0)
  (0.0510319 -0.027807 0)
  (0.07357 0.00312974 0)
  (0.106423 0.0157716 0)
  (0.111881 -0.0275937 0)
  (0.0962361 -0.0384764 0)
  (0.0865847 -0.0367397 0)
  (0.081583 -0.031471 0)
  (0.0780758 -0.024171 0)
  (0.0760779 -0.0151338 0)
  (0.0779015 -0.0089662 0)
  (0.0830653 -0.00674343 0)
  (0.0872681 -0.00545716 0)
  (0.0899002 -0.00447639 0)
  (0.0912725 -0.00333915 0)
  (0.0907624 -0.00175778 0)
  (0.0873808 0.000468814 0)
  (0.0798717 0.00365409 0)
  (0.0652053 0.00841381 0)
  (0.0528422 0.0298284 0)
  (0.0402275 0.047371 0)
  (0.060346 0.0607404 0)
  (-0.133828 0.100507 0)
  (0.638814 0.396634 0)
  (-0.246634 0.176586 0)
  (-0.0369057 0.127915 0)
  (-0.0581635 0.0917424 0)
  (-0.0622691 0.0564753 0)
  (-0.0591172 0.0148813 0)
  (-0.0408274 -0.0348847 0)
  (-0.0210714 -0.080966 0)
  (-0.00216658 -0.114609 0)
  (0.0140753 -0.133049 0)
  (0.0266021 -0.136945 0)
  (0.0363476 -0.129752 0)
  (0.043883 -0.113862 0)
  (0.050162 -0.0920928 0)
  (0.0564044 -0.067215 0)
  (0.0645176 -0.0425005 0)
  (0.0772166 -0.0241328 0)
  (0.08814 -0.0240902 0)
  (0.089026 -0.0332714 0)
  (0.0818001 -0.0341306 0)
  (0.0728861 -0.0305559 0)
  (0.0658227 -0.0257911 0)
  (0.0606819 -0.0202324 0)
  (0.0577895 -0.0139335 0)
  (0.0578165 -0.00773231 0)
  (0.060364 -0.00470619 0)
  (0.0631696 -0.00346922 0)
  (0.0657408 -0.00237927 0)
  (0.0679482 -0.000373678 0)
  (0.0693251 0.00301174 0)
  (0.0686894 0.00783498 0)
  (0.0655177 0.0142728 0)
  (0.0590984 0.0230742 0)
  (0.0514807 0.0394838 0)
  (0.0400345 0.0591182 0)
  (0.0680182 0.080595 0)
  (-0.0344055 0.112916 0)
  (0.0475961 0.027554 0)
  (-0.0688577 -0.0377369 0)
  (-0.285861 -0.0612848 0)
  (0.728513 0.442321 0)
  (-0.285906 0.195711 0)
  (-0.00676976 0.122174 0)
  (-0.00943302 0.0896053 0)
  (-0.000194682 0.0523498 0)
  (0.0230012 0.000991033 0)
  (0.0520458 -0.055093 0)
  (0.0715461 -0.0988136 0)
  (0.0834013 -0.127466 0)
  (0.0884586 -0.141315 0)
  (0.0882613 -0.142018 0)
  (0.0845579 -0.132261 0)
  (0.0789302 -0.11491 0)
  (0.0730265 -0.0929603 0)
  (0.0682687 -0.0692028 0)
  (0.0659033 -0.0467894 0)
  (0.0666016 -0.0298886 0)
  (0.0670223 -0.0235455 0)
  (0.0631867 -0.0239827 0)
  (0.055376 -0.0241924 0)
  (0.046681 -0.0222952 0)
  (0.0395185 -0.019331 0)
  (0.0344447 -0.0158395 0)
  (0.0317586 -0.0120054 0)
  (0.031611 -0.00863207 0)
  (0.0335363 -0.00726196 0)
  (0.0364019 -0.00688859 0)
  (0.0397368 -0.00614481 0)
  (0.043306 -0.00395774 0)
  (0.0469608 0.000507854 0)
  (0.0497049 0.00724508 0)
  (0.0509008 0.0159302 0)
  (0.0508531 0.0269252 0)
  (0.0510858 0.042164 0)
  (0.048838 0.0612637 0)
  (0.0761484 0.0860513 0)
  (0.0487556 0.105415 0)
  (0.097453 0.0699156 0)
  (0.122139 0.0453962 0)
  (-0.138177 -0.00987704 0)
  (0.785972 0.48407 0)
  (-0.303812 0.179912 0)
  (0.0246888 0.0655176 0)
  (0.058763 0.0541075 0)
  (0.0865965 0.0255516 0)
  (0.13132 -0.029834 0)
  (0.159465 -0.0778986 0)
  (0.172491 -0.111442 0)
  (0.172578 -0.130636 0)
  (0.162582 -0.136999 0)
  (0.145792 -0.132542 0)
  (0.125355 -0.119818 0)
  (0.103993 -0.101657 0)
  (0.0839674 -0.0807271 0)
  (0.0668076 -0.0592083 0)
  (0.0534737 -0.0396811 0)
  (0.0441147 -0.0251352 0)
  (0.0369623 -0.0178929 0)
  (0.0296401 -0.0160994 0)
  (0.0216173 -0.0158199 0)
  (0.0140393 -0.0149841 0)
  (0.00800748 -0.0136808 0)
  (0.00389084 -0.0121989 0)
  (0.00187222 -0.0106979 0)
  (0.00195571 -0.00968463 0)
  (0.00366712 -0.00974453 0)
  (0.00628885 -0.0102053 0)
  (0.00953368 -0.0100957 0)
  (0.0134226 -0.00847469 0)
  (0.0180844 -0.00427316 0)
  (0.0247569 0.00339017 0)
  (0.0303901 0.0128856 0)
  (0.0359725 0.023922 0)
  (0.0433544 0.0373974 0)
  (0.050786 0.0529653 0)
  (0.0759393 0.0731236 0)
  (0.0883401 0.0805826 0)
  (0.125164 0.0523811 0)
  (0.167734 0.0429044 0)
  (-0.0320915 0.0966989 0)
  (0.894135 0.483138 0)
  (-0.054991 0.158061 0)
  (0.120514 -0.0241658 0)
  (0.211113 -0.0616714 0)
  (0.258052 -0.07626 0)
  (0.282052 -0.0930447 0)
  (0.289428 -0.108095 0)
  (0.280043 -0.117205 0)
  (0.256289 -0.119352 0)
  (0.222556 -0.114843 0)
  (0.183631 -0.104603 0)
  (0.143641 -0.0899949 0)
  (0.105858 -0.0729282 0)
  (0.0725739 -0.0551787 0)
  (0.0448667 -0.037889 0)
  (0.023649 -0.0230565 0)
  (0.008809 -0.0129964 0)
  (-0.00131136 -0.00848276 0)
  (-0.00887924 -0.00786717 0)
  (-0.0154096 -0.00842617 0)
  (-0.0209712 -0.00888554 0)
  (-0.025303 -0.00916689 0)
  (-0.0283206 -0.00940824 0)
  (-0.0300004 -0.00974965 0)
  (-0.0304549 -0.0104138 0)
  (-0.0300651 -0.0114993 0)
  (-0.0292474 -0.0126538 0)
  (-0.0281207 -0.0133806 0)
  (-0.0265093 -0.0131627 0)
  (-0.0239692 -0.0113853 0)
  (-0.0193508 -0.00725135 0)
  (-0.00900505 -0.000117313 0)
  (-0.000735567 0.00845585 0)
  (0.0105043 0.0170169 0)
  (0.0220901 0.0246969 0)
  (0.043366 0.0334737 0)
  (0.0620099 0.0257624 0)
  (0.081024 -0.00558271 0)
  (0.142593 0.0448508 0)
  (-0.454779 0.221847 0)
  (1.04667 0.427102 0)
  (0.495839 0.278774 0)
  (0.515224 0.172384 0)
  (0.550241 0.0927715 0)
  (0.529215 0.0377043 0)
  (0.480371 -0.00524908 0)
  (0.423993 -0.0360078 0)
  (0.362568 -0.0541582 0)
  (0.297049 -0.0612944 0)
  (0.230924 -0.0601042 0)
  (0.168304 -0.0533028 0)
  (0.112122 -0.042972 0)
  (0.0645398 -0.0313354 0)
  (0.0259683 -0.0200345 0)
  (-0.00465354 -0.00987226 0)
  (-0.0242987 -0.00364248 0)
  (-0.0354758 -0.00114641 0)
  (-0.0422113 -0.000942587 0)
  (-0.0470465 -0.0019723 0)
  (-0.0513493 -0.00335411 0)
  (-0.0552104 -0.00469626 0)
  (-0.0585763 -0.00597105 0)
  (-0.0614412 -0.00721775 0)
  (-0.0638817 -0.00847436 0)
  (-0.066095 -0.00977217 0)
  (-0.0684181 -0.0110383 0)
  (-0.0712099 -0.0119944 0)
  (-0.0747742 -0.0122301 0)
  (-0.0794426 -0.0112241 0)
  (-0.0857178 -0.00830149 0)
  (-0.0943174 -0.0026532 0)
  (-0.104818 0.00624523 0)
  (-0.115848 0.0180555 0)
  (-0.133184 0.0331187 0)
  (-0.160518 0.0512204 0)
  (-0.200258 0.0702777 0)
  (-0.256357 0.0849606 0)
  (-0.319597 0.0922828 0)
  (-0.391136 0.0929851 0)
  (-0.6597 0.0876108 0)
  (-0.176256 -0.0217255 0)
  (0.0991069 -0.0388172 0)
  (0.176163 -0.0572502 0)
  (0.162492 -0.0489239 0)
  (0.142282 -0.0351469 0)
  (0.117296 -0.0226818 0)
  (0.0844983 -0.0120772 0)
  (0.0481267 -0.00389444 0)
  (0.0128124 0.00169591 0)
  (-0.0195109 0.00517306 0)
  (-0.0423652 0.00629179 0)
  (-0.058795 0.00621112 0)
  (-0.0688983 0.0049949 0)
  (-0.0740682 0.00273305 0)
  (-0.0770035 0.000223675 0)
  (-0.0790712 -0.00233078 0)
  (-0.0810836 -0.00491025 0)
  (-0.0833834 -0.00730722 0)
  (-0.0861347 -0.00928709 0)
  (-0.0891489 -0.0107791 0)
  (-0.0922924 -0.0118751 0)
  (-0.0956531 -0.0126118 0)
  (-0.099391 -0.0130102 0)
  (-0.103675 -0.0129966 0)
  (-0.1086 -0.0123369 0)
  (-0.114113 -0.0106446 0)
  (-0.119972 -0.00742393 0)
  (-0.125719 -0.00212736 0)
  (-0.130633 0.00557065 0)
  (-0.13439 0.0160855 0)
  (-0.137403 0.0304287 0)
  (-0.140237 0.0490772 0)
  (-0.144003 0.0709836 0)
  (-0.149321 0.0915246 0)
  (-0.152676 0.0992603 0)
  (-0.134886 0.0722023 0)
  (-0.0819059 -0.0313963 0)
  (-0.288986 -0.225175 0)
  (0.038842 0.196986 0)
  (0.011733 0.0623853 0)
  (-0.0334072 0.0110274 0)
  (-0.0580515 0.010519 0)
  (-0.0770988 0.0169197 0)
  (-0.0909866 0.0218108 0)
  (-0.100027 0.0257409 0)
  (-0.106659 0.0288665 0)
  (-0.111299 0.0306124 0)
  (-0.114194 0.0308068 0)
  (-0.115218 0.0301239 0)
  (-0.114918 0.0297153 0)
  (-0.11357 0.0296991 0)
  (-0.111829 0.0301682 0)
  (-0.110266 0.03137 0)
  (-0.109096 0.0331341 0)
  (-0.108445 0.0350064 0)
  (-0.10834 0.036447 0)
  (-0.108722 0.0369122 0)
  (-0.109567 0.0361105 0)
  (-0.110851 0.0347229 0)
  (-0.112552 0.0330034 0)
  (-0.114637 0.0310701 0)
  (-0.117055 0.0290235 0)
  (-0.119701 0.0269747 0)
  (-0.122397 0.0250392 0)
  (-0.124847 0.0233057 0)
  (-0.126498 0.0220819 0)
  (-0.126462 0.0227431 0)
  (-0.123433 0.0265422 0)
  (-0.115794 0.0346532 0)
  (-0.102376 0.0481952 0)
  (-0.0835188 0.0669666 0)
  (-0.0604835 0.0860067 0)
  (-0.0363168 0.0969156 0)
  (0.0070471 0.0794704 0)
  (0.144555 0.00335038 0)
  (-0.207817 -0.137899 0)
  (-0.0928123 -0.346912 0)
  (-0.447124 -0.138612 0)
  (-0.334152 0.0440151 0)
  (-0.293695 -0.0436511 0)
  (-0.253163 -0.0498914 0)
  (-0.24223 -0.0425636 0)
  (-0.234329 -0.035651 0)
  (-0.224956 -0.0313385 0)
  (-0.213141 -0.0292472 0)
  (-0.199263 -0.0295136 0)
  (-0.184404 -0.0326643 0)
  (-0.170031 -0.0386001 0)
  (-0.15735 -0.0464108 0)
  (-0.14692 -0.0548598 0)
  (-0.138792 -0.0634947 0)
  (-0.132771 -0.0721066 0)
  (-0.128436 -0.0803511 0)
  (-0.125323 -0.0878604 0)
  (-0.123102 -0.0941967 0)
  (-0.121588 -0.0988815 0)
  (-0.120735 -0.101554 0)
  (-0.12057 -0.102036 0)
  (-0.121075 -0.100998 0)
  (-0.122094 -0.0987418 0)
  (-0.123458 -0.0954419 0)
  (-0.124979 -0.0911893 0)
  (-0.126401 -0.0859745 0)
  (-0.127375 -0.0796684 0)
  (-0.127454 -0.071995 0)
  (-0.126029 -0.0628204 0)
  (-0.121957 -0.0526579 0)
  (-0.113084 -0.0413287 0)
  (-0.0964655 -0.0282988 0)
  (-0.0699866 -0.0125843 0)
  (-0.0350689 0.00655052 0)
  (0.0240577 0.031192 0)
  (0.0744764 0.0319958 0)
  (0.12297 0.0103693 0)
  (0.176533 -0.030315 0)
  (-0.178723 -0.0983695 0)
)
;

boundaryField
{
  floor
  {
    type noSlip;
  }
  ceiling
  {
    type noSlip;
  }
  sWall
  {
    type noSlip;
  }
  nWall
  {
    type noSlip;
  }
  sideWalls
  {
    type empty;
  }
  glass1
  {
    type noSlip;
  }
  glass2
  {
    type noSlip;
  }
  sun
  {
    type noSlip;
  }
  heatsource1
  {
    type noSlip;
  }
  heatsource2
  {
    type noSlip;
  }
  Table_master
  {
    type noSlip;
  }
  Table_slave
  {
    type noSlip;
  }
  inlet
  {
    type fixedValue;
    value uniform (0.277164 -0.114805 0);
  }
  outlet
  {
    type zeroGradient;
  }
} 	// ************************************************************************* //

