/*--------------------------------*- C++ -*----------------------------------*\
  =========                 |
  \\      /  F ield         | OpenFOAM: The Open Source CFD Toolbox
   \\    /   O peration     | Website:  https://openfoam.org
    \\  /    A nd           | Version:  6
     \\/     M anipulation  |
\*---------------------------------------------------------------------------*/
FoamFile
{
    version     2.0;
    format      ascii;
    class       volScalarField;
    location    "100";
    object      alphat;
}
// * * * * * * * * * * * * * * * * * * * * * * * * * * * * * * * * * * * * * //

dimensions      [1 -1 -1 0 0 0 0];

internalField   nonuniform List<scalar> 
459
(
0.00105174
0.0011219
0.00112144
0.00116697
0.00120814
0.00124535
0.00128013
0.00131425
0.0013479
0.00137352
0.00138672
0.00138188
0.00135415
0.00130388
0.00124127
0.000548048
0.000649474
0.000690225
0.000675608
0.000656558
0.000635221
0.000608062
0.000580244
0.000554543
0.000531482
0.000510916
0.00049256
0.00047608
0.000461216
0.000447364
0.000433726
0.000419218
0.000412181
0.000384974
0.00151831
0.00297513
0.00264861
0.00307313
0.00340445
0.00375588
0.00410261
0.00440286
0.00462589
0.00483716
0.0050075
0.00508891
0.00500926
0.00461824
0.00348369
0.00124993
0.000774916
0.000685355
0.00110501
0.0014136
0.00168478
0.00186433
0.0019105
0.00160356
0.0014335
0.00130659
0.0012045
0.00112069
0.00105172
0.000993799
0.000937557
0.000877247
0.000820258
0.000768496
0.000928918
0.000497405
0.00192364
0.00415559
0.00299115
0.00408749
0.00442528
0.00464924
0.00481213
0.00493808
0.0050475
0.00518328
0.00532319
0.00544109
0.00552771
0.00559134
0.00553504
0.00479522
0.00116124
0.00108386
0.0014991
0.00185768
0.00223689
0.00255635
0.00254172
0.000821343
0.000741918
0.000676895
0.000623475
0.000579126
0.000541914
0.000510562
0.000484553
0.000464262
0.000516742
0.000617221
0.00107878
0.000581192
0.00232868
0.00576442
0.00286589
0.00431769
0.00468442
0.00472851
0.00470254
0.00469178
0.00473657
0.00483675
0.00495311
0.00504772
0.00513349
0.00532458
0.00568006
0.00581461
0.00475679
0.00134152
0.00178171
0.00231354
0.00285739
0.00334905
0.00370037
0.00346416
0.000915816
0.000860896
0.000829186
0.000807636
0.000786864
0.000760119
0.000730988
0.000698054
0.000656772
0.00062916
0.000660682
0.00130507
0.000646247
0.00274239
0.00790737
0.00328325
0.00400721
0.00466094
0.00463409
0.00449725
0.00442065
0.00446678
0.00459943
0.00473608
0.00480273
0.00479455
0.00490925
0.00529662
0.00559173
0.00539031
0.0046051
0.00435196
0.00439991
0.00457326
0.0047765
0.0049261
0.00487325
0.0042586
0.00407757
0.00400418
0.00392939
0.00380981
0.00362011
0.00326436
0.00278734
0.00223854
0.00168059
0.0012362
0.00127943
0.000853181
0.00079333
0.000944225
0.00105681
0.00317318
0.0102307
0.00514621
0.00363536
0.0042795
0.00446338
0.004383
0.00428254
0.00433378
0.00453675
0.00471468
0.00476974
0.00465801
0.00466517
0.00501401
0.00532052
0.00533458
0.00521632
0.00522516
0.00528292
0.00533859
0.00539362
0.00542659
0.00540496
0.00530063
0.00522364
0.00513471
0.00500885
0.00484105
0.00463456
0.0043545
0.0039258
0.00335263
0.00266815
0.00201614
0.00146351
0.00114707
0.00101647
0.00147144
0.00111195
0.00359572
0.0120539
0.00853163
0.00506186
0.0040174
0.00388534
0.00410222
0.00426859
0.00442768
0.0046376
0.00480759
0.00483066
0.00462351
0.00452592
0.00490117
0.00528715
0.00535537
0.00535088
0.00538711
0.00538969
0.00536662
0.00534576
0.00532466
0.00529217
0.00524309
0.00517383
0.00506342
0.00491579
0.00474554
0.00457475
0.00441855
0.0041885
0.00376377
0.00317527
0.00258009
0.00200462
0.00163063
0.0015742
0.0016676
0.00130171
0.00369274
0.0115048
0.00973807
0.00812065
0.00649057
0.00537169
0.00495875
0.00490792
0.00485752
0.00490156
0.00499341
0.00493595
0.00457201
0.00437924
0.00489356
0.00543822
0.00550117
0.00537002
0.00520729
0.00508908
0.00501268
0.0049625
0.00491702
0.00485994
0.00478145
0.00467365
0.00453532
0.00438303
0.00424478
0.00414952
0.00411885
0.00413575
0.00398209
0.00357033
0.0032004
0.00304885
0.00330181
0.00412434
0.0052347
0.00196605
0.00360986
0.00434798
0.00499561
0.0052857
0.00533443
0.00516339
0.00499174
0.00490423
0.00492579
0.00505337
0.00517369
0.00499575
0.00436536
0.0041103
0.00496208
0.00572155
0.0056117
0.00518613
0.00487401
0.00470307
0.00460777
0.00453961
0.0044682
0.00437463
0.00424792
0.00408465
0.00389183
0.00368681
0.00349011
0.00331645
0.0031702
0.00304675
0.00295399
0.00289395
0.00289247
0.00293727
0.00293724
0.00280708
0.00259543
0.00179485
0.00275898
0.00496018
0.00538618
0.00549163
0.00552511
0.00557061
0.00559685
0.00558698
0.00544096
0.00480521
0.0037505
0.00359368
0.00513772
0.00604503
0.00556271
0.00500514
0.00468713
0.00453175
0.00444247
0.00436901
0.00428436
0.004173
0.00402719
0.0038466
0.00363985
0.00342466
0.00322464
0.00306454
0.00296546
0.00292943
0.00293318
0.00295889
0.00298701
0.00297451
0.00285884
0.00261268
0.00225565
0.00145247
0.00293703
0.00582837
0.00622188
0.00609686
0.00591998
0.00573303
0.00548744
0.00519403
0.00466129
0.00364378
0.00254047
0.00265571
0.0045593
0.00502926
0.00476839
0.00443284
0.00423729
0.00412865
0.00405437
0.00398587
0.00390698
0.00381041
0.00369639
0.00357128
0.00344568
0.00333087
0.00323433
0.00315545
0.00311379
0.00312205
0.00317189
0.00324622
0.00331853
0.00337111
0.00335292
0.00332332
0.00284576
0.00147267
0.00251243
0.00265614
0.00277491
0.00291692
0.00273188
0.00256862
0.00232938
0.00210758
0.00189812
0.00170364
0.00155409
0.00140043
0.00112215
0.001072
0.00113999
0.00113369
0.00109786
0.00107778
0.00106566
0.00105806
0.00105249
0.00104792
0.00104427
0.00104225
0.00104306
0.00104817
0.00105902
0.001077
0.00110362
0.00114106
0.0011887
0.0012461
0.00131337
0.00139037
0.00147617
0.00158973
0.0016245
0.00158566
0.00147837
0.00136334
)
;

boundaryField
{
    floor
    {
        type            compressible::alphatWallFunction;
        Prt             0.85;
        value           nonuniform List<scalar> 
29
(
0.000175773
7.65014e-05
9.16916e-05
9.7711e-05
9.5557e-05
9.27408e-05
8.95749e-05
8.55265e-05
8.13572e-05
7.74834e-05
7.39885e-05
7.08561e-05
6.80469e-05
6.55136e-05
6.32195e-05
6.10729e-05
5.89514e-05
5.66849e-05
5.55811e-05
5.12935e-05
5.12928e-05
6.87839e-05
8.14906e-05
9.12007e-05
0.000175771
7.65005e-05
9.6993e-05
0.000153994
0.000189493
)
;
    }
    ceiling
    {
        type            compressible::alphatWallFunction;
        Prt             0.85;
        value           nonuniform List<scalar> 
43
(
0.000342846
0.000361057
0.000376033
0.000393973
0.000370781
0.000350163
0.00031968
0.000291108
0.000263824
0.000238197
0.00021827
0.000197576
0.000159435
0.000152449
0.000161911
0.000161041
0.000156063
0.000153266
0.000151573
0.000150511
0.000149733
0.000149093
0.000148581
0.000148298
0.000148412
0.000149128
0.000150647
0.000153159
0.00015687
0.000162074
0.000168666
0.000176569
0.000185777
0.000196253
0.000207849
0.000223083
0.000227725
0.000222542
0.000208148
0.000192588
0.000479987
0.000569461
0.000396244
)
;
    }
    sWall
    {
        type            compressible::alphatWallFunction;
        Prt             0.85;
        value           uniform 0.000341561;
    }
    nWall
    {
        type            compressible::alphatWallFunction;
        Prt             0.85;
        value           nonuniform List<scalar> 6(0.000149963 0.000157648 0.000183793 0.000204289 0.00020701 0.000192219);
    }
    sideWalls
    {
        type            empty;
    }
    glass1
    {
        type            compressible::alphatWallFunction;
        Prt             0.85;
        value           nonuniform List<scalar> 9(0.000145297 0.000208164 0.000261191 0.000313092 0.000365208 0.000418668 0.000470424 0.000482367 0.000472535);
    }
    glass2
    {
        type            compressible::alphatWallFunction;
        Prt             0.85;
        value           nonuniform List<scalar> 2(0.000270313 0.000248074);
    }
    sun
    {
        type            compressible::alphatWallFunction;
        Prt             0.85;
        value           nonuniform List<scalar> 
14
(
0.000149514
0.000159281
0.000159216
0.000165528
0.000171212
0.00017633
0.000181098
0.000185761
0.000190347
0.00019383
0.000195622
0.000194965
0.000191198
0.000184347
)
;
    }
    heatsource1
    {
        type            compressible::alphatWallFunction;
        Prt             0.85;
        value           nonuniform List<scalar> 3(0.000112926 0.000134539 0.000150397);
    }
    heatsource2
    {
        type            compressible::alphatWallFunction;
        Prt             0.85;
        value           nonuniform List<scalar> 4(0.000177162 0.000110271 0.00011027 0.000164938);
    }
    Table_master
    {
        type            compressible::alphatWallFunction;
        Prt             0.85;
        value           nonuniform List<scalar> 9(0.000116982 0.000105463 9.59217e-05 8.79993e-05 8.13588e-05 7.57385e-05 7.09662e-05 6.69796e-05 6.38512e-05);
    }
    Table_slave
    {
        type            compressible::alphatWallFunction;
        Prt             0.85;
        value           nonuniform List<scalar> 9(0.000130516 0.00012267 0.000118112 0.000115003 0.000111997 0.000108112 0.000103864 9.90355e-05 9.2944e-05);
    }
    inlet
    {
        type            fixedValue;
        value           uniform 1.94e-05;
    }
    outlet
    {
        type            zeroGradient;
    }
}


// ************************************************************************* //
