/*--------------------------------*- C++ -*----------------------------------*\
  =========                 |
  \\      /  F ield         | OpenFOAM: The Open Source CFD Toolbox
   \\    /   O peration     | Website:  https://openfoam.org
    \\  /    A nd           | Version:  6
     \\/     M anipulation  |
\*---------------------------------------------------------------------------*/
FoamFile
{
    version     2.0;
    format      ascii;
    class       volScalarField;
    location    "100";
    object      epsilon;
}
// * * * * * * * * * * * * * * * * * * * * * * * * * * * * * * * * * * * * * //

dimensions      [0 2 -3 0 0 0 0];

internalField   nonuniform List<scalar> 
459
(
0.000260241
0.000314908
0.000314495
0.000354376
0.000393223
0.000430687
0.000467785
0.000506194
0.000546068
0.000577785
0.00059457
0.000588322
0.000553569
0.000494155
0.000426348
3.67129e-05
6.10963e-05
7.33325e-05
6.87682e-05
6.31095e-05
5.71508e-05
5.01265e-05
4.3555e-05
3.80191e-05
3.34699e-05
2.9733e-05
2.66423e-05
2.4057e-05
2.1874e-05
1.99624e-05
1.81925e-05
1.64279e-05
1.56143e-05
1.27242e-05
0.000784744
0.0014097
0.000290975
0.0002644
0.000266795
0.000274888
0.00028931
0.00031308
0.000347231
0.000383931
0.000413853
0.000425224
0.000408953
0.000368274
0.000341906
0.000435283
0.000103699
7.18084e-05
9.17379e-05
8.16054e-05
7.01338e-05
5.92803e-05
5.09944e-05
4.76163e-05
4.0733e-05
3.43281e-05
2.89483e-05
2.45346e-05
2.0939e-05
1.80166e-05
1.56816e-05
1.39303e-05
1.30922e-05
1.34111e-05
3.92122e-05
2.7434e-05
0.00159964
0.00406463
0.00041059
0.000252324
0.000246544
0.000258595
0.000280719
0.000314408
0.000359258
0.000406601
0.000442334
0.000453958
0.000437365
0.000400961
0.000366148
0.000348045
0.00034914
0.000284079
0.000173861
0.000118154
8.69796e-05
6.87505e-05
6.09353e-05
0.000123578
9.10652e-05
6.91456e-05
5.40227e-05
4.32877e-05
3.5463e-05
2.96542e-05
2.53475e-05
2.22944e-05
1.75911e-05
1.61345e-05
7.9364e-05
4.37567e-05
0.00284418
0.00905415
0.000763346
0.000260717
0.000237525
0.000254515
0.000284694
0.00033039
0.000393423
0.000456678
0.000494695
0.000494853
0.000460925
0.000413895
0.000373021
0.00033431
0.000333809
0.000538663
0.000316933
0.000175925
0.000114107
8.45955e-05
6.93773e-05
6.6322e-05
0.000171396
0.00014236
0.000127189
0.000117518
0.000108673
9.79564e-05
8.71147e-05
7.58566e-05
6.3172e-05
3.80955e-05
2.67962e-05
0.000148278
6.01572e-05
0.00465522
0.0166042
0.00169351
0.000315549
0.000233368
0.000249007
0.000289128
0.000359088
0.000465923
0.000560087
0.000600175
0.000579985
0.000512591
0.000437911
0.000375278
0.000299403
0.000227313
0.000199134
0.000149851
0.000112935
8.97625e-05
7.64721e-05
6.91261e-05
6.6531e-05
7.35101e-05
7.68985e-05
7.89419e-05
7.91591e-05
7.67617e-05
7.13281e-05
6.44108e-05
5.77265e-05
5.15962e-05
4.23166e-05
3.43182e-05
0.000102246
6.97709e-05
0.000111382
0.000187878
0.000263442
0.0072251
0.0246887
0.00414971
0.000629653
0.00030537
0.000275014
0.000307708
0.000414582
0.000614821
0.000740895
0.000769038
0.000713771
0.000597062
0.000484706
0.000402673
0.000306903
0.000208049
0.000146009
0.000115169
9.74064e-05
8.5659e-05
7.91875e-05
7.6611e-05
7.73751e-05
8.23665e-05
8.91243e-05
9.52227e-05
9.89969e-05
9.9078e-05
9.39234e-05
8.24327e-05
6.99003e-05
5.85902e-05
4.87686e-05
4.37878e-05
7.05924e-05
7.25462e-05
8.6772e-05
0.000351784
0.000306739
0.0105289
0.0293373
0.00963996
0.00259737
0.00115365
0.000694741
0.000579034
0.000728403
0.000962929
0.00104602
0.00101347
0.000892762
0.000710794
0.000548637
0.00044864
0.000338528
0.000217648
0.000141952
0.000111618
9.90581e-05
9.23751e-05
9.00148e-05
9.09331e-05
9.4917e-05
0.000102274
0.000112126
0.000122588
0.000132177
0.000139699
0.000142634
0.000136492
0.000118032
0.000100299
8.56444e-05
8.06421e-05
9.60559e-05
0.000127929
0.00022648
0.00053668
0.000492032
0.0114321
0.0342161
0.0180407
0.0110163
0.00635568
0.00366187
0.00242116
0.00197828
0.00175929
0.00157102
0.00136758
0.00111739
0.000824856
0.000601102
0.000497237
0.000380136
0.000234597
0.000150873
0.000124329
0.00011473
0.000110714
0.000110204
0.000112639
0.000118058
0.000126667
0.000138343
0.000152903
0.000170697
0.000192415
0.000218166
0.000246206
0.000266769
0.000273968
0.000297992
0.000357678
0.000563012
0.00112514
0.00236596
0.00700592
0.00169925
0.0107158
0.0186636
0.0156479
0.0118123
0.00869339
0.00625659
0.00460146
0.00351286
0.00274647
0.00219493
0.00175561
0.00131894
0.00087715
0.000601707
0.000537342
0.00042535
0.000255969
0.000186046
0.00016227
0.000153066
0.000148876
0.000147356
0.000148006
0.000150978
0.000156709
0.000165838
0.000179493
0.000199696
0.00022948
0.000272846
0.000334758
0.00042089
0.000539422
0.00071456
0.000975727
0.00132798
0.00172075
0.00203848
0.00225878
0.00129552
0.00695508
0.0101897
0.00784112
0.00606793
0.00474559
0.00375195
0.00297656
0.00235007
0.00181419
0.00125224
0.000739305
0.000498824
0.000577547
0.000491356
0.000341991
0.000280923
0.000258033
0.000247916
0.000241928
0.000237435
0.000233574
0.000230235
0.000227796
0.000227023
0.000229199
0.000236425
0.000251928
0.000280472
0.00032907
0.000405087
0.000516656
0.000672753
0.000875113
0.00109497
0.00125774
0.00126777
0.00105484
0.000686273
0.00534373
0.00926892
0.00720737
0.00544766
0.00413312
0.00311483
0.00228852
0.00169237
0.00125397
0.000860891
0.000481411
0.000309803
0.000393873
0.000461492
0.000463912
0.000441923
0.000424055
0.000411601
0.000401686
0.000392036
0.000381237
0.000368824
0.000355418
0.000342734
0.000333367
0.000330406
0.000337183
0.000357361
0.000396121
0.000460192
0.000557016
0.000692911
0.000866872
0.00106762
0.00122512
0.00133674
0.000912117
0.000715212
0.00341176
0.00402885
0.00459361
0.00543314
0.00449423
0.00374872
0.0028029
0.00207763
0.00151824
0.00109799
0.000833643
0.000610302
0.000315267
0.000275369
0.000331213
0.000325832
0.000295968
0.00028006
0.00027073
0.000264987
0.000260836
0.000257455
0.000254778
0.0002533
0.000253898
0.000257647
0.00026573
0.00027949
0.000300727
0.000332386
0.000375778
0.000432883
0.000506844
0.000601332
0.000719698
0.00089903
0.000959461
0.000892358
0.00072323
0.000567425
)
;

boundaryField
{
    floor
    {
        Cmu             0.09;
        kappa           0.41;
        E               9.8;
        type            epsilonWallFunction;
        value           nonuniform List<scalar> 
29
(
0.000426348
3.67129e-05
6.10963e-05
7.33325e-05
6.87682e-05
6.31095e-05
5.71508e-05
5.01265e-05
4.3555e-05
3.80191e-05
3.34699e-05
2.9733e-05
2.66423e-05
2.4057e-05
2.1874e-05
1.99624e-05
1.81925e-05
1.64279e-05
1.56143e-05
1.27242e-05
1.27242e-05
2.7434e-05
4.37567e-05
6.01572e-05
0.000426348
3.67129e-05
7.18084e-05
0.000284079
0.000538663
)
;
    }
    ceiling
    {
        Cmu             0.09;
        kappa           0.41;
        E               9.8;
        type            epsilonWallFunction;
        value           nonuniform List<scalar> 
43
(
0.00341176
0.00402885
0.00459361
0.00543314
0.00449423
0.00374872
0.0028029
0.00207763
0.00151824
0.00109799
0.000833643
0.000610302
0.000315267
0.000275369
0.000331213
0.000325832
0.000295968
0.00028006
0.00027073
0.000264987
0.000260836
0.000257455
0.000254778
0.0002533
0.000253898
0.000257647
0.00026573
0.00027949
0.000300727
0.000332386
0.000375778
0.000432883
0.000506844
0.000601332
0.000719698
0.00089903
0.000959461
0.000892358
0.00072323
0.000567425
0.0107158
0.0186636
0.00534373
)
;
    }
    sWall
    {
        Cmu             0.09;
        kappa           0.41;
        E               9.8;
        type            epsilonWallFunction;
        value           uniform 0.00341176;
    }
    nWall
    {
        Cmu             0.09;
        kappa           0.41;
        E               9.8;
        type            epsilonWallFunction;
        value           nonuniform List<scalar> 6(0.000263442 0.000306739 0.000492032 0.000686273 0.000715212 0.000567425);
    }
    sideWalls
    {
        type            empty;
    }
    glass1
    {
        Cmu             0.09;
        kappa           0.41;
        E               9.8;
        type            epsilonWallFunction;
        value           nonuniform List<scalar> 9(0.000260241 0.000784744 0.00159964 0.00284418 0.00465522 0.0072251 0.0105289 0.0114321 0.0107158);
    }
    glass2
    {
        Cmu             0.09;
        kappa           0.41;
        E               9.8;
        type            epsilonWallFunction;
        value           nonuniform List<scalar> 2(0.00169925 0.00129552);
    }
    sun
    {
        Cmu             0.09;
        kappa           0.41;
        E               9.8;
        type            epsilonWallFunction;
        value           nonuniform List<scalar> 
14
(
0.000260241
0.000314908
0.000314495
0.000354376
0.000393223
0.000430687
0.000467785
0.000506194
0.000546068
0.000577785
0.00059457
0.000588322
0.000553569
0.000494155
)
;
    }
    heatsource1
    {
        Cmu             0.09;
        kappa           0.41;
        E               9.8;
        type            epsilonWallFunction;
        value           nonuniform List<scalar> 3(0.000111382 0.000187878 0.000263442);
    }
    heatsource2
    {
        Cmu             0.09;
        kappa           0.41;
        E               9.8;
        type            epsilonWallFunction;
        value           nonuniform List<scalar> 4(0.000435283 0.000103699 0.000103699 0.00034914);
    }
    Table_master
    {
        Cmu             0.09;
        kappa           0.41;
        E               9.8;
        type            epsilonWallFunction;
        value           nonuniform List<scalar> 9(0.000123578 9.10652e-05 6.91456e-05 5.40227e-05 4.32877e-05 3.5463e-05 2.96542e-05 2.53475e-05 2.22944e-05);
    }
    Table_slave
    {
        Cmu             0.09;
        kappa           0.41;
        E               9.8;
        type            epsilonWallFunction;
        value           nonuniform List<scalar> 9(0.000171396 0.00014236 0.000127189 0.000117518 0.000108673 9.79564e-05 8.71147e-05 7.58566e-05 6.3172e-05);
    }
    inlet
    {
        type            turbulentMixingLengthDissipationRateInlet;
        mixingLength    0.01;
        phi             phi;
        k               k;
        value           uniform 0.000101881;
    }
    outlet
    {
        type            zeroGradient;
    }
}


// ************************************************************************* //
