/*--------------------------------*- C++ -*----------------------------------*\
  =========                 |
  \\      /  F ield         | OpenFOAM: The Open Source CFD Toolbox
   \\    /   O peration     | Website:  https://openfoam.org
    \\  /    A nd           | Version:  6
     \\/     M anipulation  |
\*---------------------------------------------------------------------------*/
FoamFile
{
    version     2.0;
    format      ascii;
    class       volScalarField;
    location    "100";
    object      nut;
}
// * * * * * * * * * * * * * * * * * * * * * * * * * * * * * * * * * * * * * //

dimensions      [0 2 -1 0 0 0 0];

internalField   nonuniform List<scalar> 
459
(
0.000902609
0.000961841
0.000961424
0.00100046
0.00103576
0.00106766
0.00109747
0.00112672
0.00115557
0.00117752
0.00118881
0.00118463
0.00116082
0.00111769
0.00106402
0.000469813
0.000556739
0.000591666
0.000579125
0.000562784
0.000544484
0.000521195
0.000497342
0.000475306
0.000455534
0.000437903
0.000422168
0.000408042
0.000395303
0.000383432
0.000371746
0.000359314
0.000353289
0.000329995
0.00130401
0.00255105
0.00227092
0.00263497
0.00291914
0.00322054
0.0035179
0.00377539
0.00396663
0.00414768
0.00429352
0.00436301
0.0042944
0.00395896
0.00298625
0.00107139
0.000664102
0.000587545
0.0009473
0.00121183
0.00144428
0.00159815
0.00163769
0.00137452
0.0012287
0.00111988
0.00103234
0.00096048
0.000901346
0.000851684
0.000803473
0.000751783
0.000702948
0.000658599
0.000796107
0.000426351
0.0016534
0.00356391
0.00256493
0.00350524
0.00379515
0.00398744
0.00412732
0.00423547
0.00432934
0.00444563
0.0045652
0.00466569
0.00473933
0.00479347
0.00474505
0.00411078
0.000995419
0.000929274
0.00128527
0.00159268
0.00191777
0.00219162
0.00217902
0.0007041
0.000635976
0.000580206
0.000534389
0.000496354
0.000464442
0.000437558
0.000415256
0.00039786
0.000442833
0.000528946
0.000924517
0.000498167
0.00200303
0.00494482
0.00245782
0.00370316
0.00401812
0.00405635
0.00403443
0.00402545
0.00406396
0.00414971
0.00424891
0.00432912
0.00440172
0.00456498
0.00486961
0.00498508
0.00407825
0.00115021
0.00152765
0.00198369
0.00245002
0.00287158
0.00317277
0.00297019
0.000785213
0.000738113
0.000710915
0.00069243
0.000674612
0.000651671
0.000626685
0.000598438
0.000563032
0.000539293
0.000566256
0.0011185
0.000553943
0.00236056
0.00678509
0.00281611
0.00343724
0.00399852
0.00397607
0.0038592
0.00379391
0.00383371
0.00394735
0.0040638
0.00411969
0.00411138
0.00420901
0.00454102
0.00479429
0.00462184
0.00394874
0.00373179
0.003773
0.0039217
0.00409598
0.00422423
0.00417888
0.00365178
0.00349652
0.00343356
0.0033694
0.00326682
0.00310409
0.00279897
0.00238986
0.00191923
0.00144073
0.00105964
0.0010966
0.000731321
0.000680226
0.00080972
0.000906299
0.00273306
0.00878191
0.00441495
0.0031186
0.0036716
0.00382995
0.00376163
0.00367606
0.00372048
0.00389457
0.0040463
0.0040919
0.00399446
0.0039998
0.00429882
0.00456199
0.00457445
0.00447332
0.00448108
0.00453072
0.00457852
0.00462571
0.00465397
0.00463539
0.0045459
0.00447985
0.00440356
0.00429559
0.00415161
0.00397443
0.00373411
0.00336631
0.00287465
0.00228756
0.00172836
0.00125448
0.000983246
0.00087141
0.00126152
0.000953457
0.00309858
0.0103533
0.0073235
0.00434389
0.00344743
0.00333434
0.00352095
0.00366451
0.00380173
0.00398173
0.00412644
0.00414433
0.0039649
0.0038804
0.00420214
0.00453361
0.00459271
0.00458925
0.00462052
0.00462283
0.00460309
0.0045852
0.00456709
0.00453922
0.00449711
0.00443768
0.00434296
0.00421629
0.0040702
0.00392359
0.00378945
0.00359192
0.00322745
0.00272258
0.00221203
0.00171847
0.00139782
0.0013495
0.00142964
0.0011161
0.00318477
0.00989806
0.00837228
0.00697761
0.00557472
0.00461282
0.00425808
0.00421486
0.00417168
0.00420868
0.0042858
0.00423424
0.00392031
0.00375445
0.00419567
0.00466349
0.00471827
0.00460623
0.00446681
0.00436549
0.00429998
0.00425695
0.00421793
0.00416896
0.00410163
0.00400913
0.00389044
0.00375977
0.0036411
0.00355929
0.00353284
0.00354711
0.00341507
0.00306171
0.00274426
0.00261413
0.002831
0.00353655
0.00448917
0.00168704
0.00311682
0.00375004
0.00430419
0.00455002
0.00458868
0.0044393
0.00429035
0.00421415
0.00423111
0.00433846
0.00443918
0.00428402
0.00374216
0.0035236
0.00425458
0.00490702
0.00481372
0.00444901
0.00418138
0.00403479
0.00395306
0.00389459
0.00383334
0.00375305
0.00364434
0.00350427
0.00333882
0.00316291
0.00299412
0.0028451
0.00271961
0.00261372
0.00253419
0.00248278
0.0024817
0.00252045
0.00252085
0.00240953
0.00222808
0.00154118
0.00231517
0.00421482
0.00460272
0.00470233
0.00473477
0.00477493
0.00479774
0.00478907
0.00466322
0.00411747
0.00321401
0.00308074
0.00440579
0.00518543
0.00477233
0.00429423
0.00402148
0.00388821
0.00381163
0.00374861
0.00367599
0.00358045
0.00345534
0.0033004
0.00312302
0.0029384
0.0027668
0.00262944
0.00254446
0.00251358
0.00251686
0.00253904
0.00256336
0.00255288
0.00245389
0.00224284
0.00193646
0.00124702
0.00247167
0.00495211
0.00530865
0.00521246
0.00506628
0.00490838
0.00469884
0.00444806
0.00399202
0.0031207
0.00217713
0.00227743
0.00391112
0.00431492
0.00409141
0.00380364
0.00363591
0.00354271
0.00347899
0.00342022
0.00335253
0.00326968
0.00317184
0.0030645
0.00295674
0.00285823
0.00277541
0.00270775
0.00267202
0.00267916
0.00272198
0.00278586
0.00284806
0.00289339
0.00287802
0.00285283
0.00244286
0.00126431
0.00212831
0.00224959
0.00235014
0.00248538
0.00233307
0.00219619
0.00199332
0.00180398
0.00162488
0.0014585
0.00133055
0.00119917
0.00096215
0.000919808
0.000978226
0.000972883
0.000942168
0.000924957
0.000914557
0.000908039
0.00090327
0.000899348
0.000896218
0.000894482
0.000895184
0.00089957
0.000908882
0.000924308
0.000947151
0.000979287
0.00102017
0.00106944
0.00112718
0.00119328
0.00126694
0.00136448
0.00139438
0.00136109
0.00126901
0.00117042
)
;

boundaryField
{
    floor
    {
        type            nutkWallFunction;
        Cmu             0.09;
        kappa           0.41;
        E               9.8;
        value           nonuniform List<scalar> 
29
(
0.000128219
5.58584e-05
6.69326e-05
7.13206e-05
6.97491e-05
6.76949e-05
6.53857e-05
6.24331e-05
5.93923e-05
5.65672e-05
5.40183e-05
5.17339e-05
4.96852e-05
4.78378e-05
4.61648e-05
4.45996e-05
4.30525e-05
4.13997e-05
4.05952e-05
3.74699e-05
3.74698e-05
5.02264e-05
5.9492e-05
6.65733e-05
0.000128219
5.58583e-05
7.08038e-05
0.000112369
0.000138247
)
;
    }
    ceiling
    {
        type            nutkWallFunction;
        Cmu             0.09;
        kappa           0.41;
        E               9.8;
        value           nonuniform List<scalar> 
43
(
0.000247116
0.000260181
0.00027096
0.000285501
0.000269285
0.000254596
0.000232624
0.00021189
0.000192058
0.00017342
0.000158927
0.000143885
0.000116256
0.000111234
0.000118144
0.000117516
0.000113888
0.000111849
0.000110615
0.000109841
0.000109273
0.000108807
0.000108434
0.000108227
0.000108311
0.000108833
0.000109941
0.000111774
0.000114482
0.000118278
0.000123087
0.000128853
0.000135572
0.000143216
0.000151679
0.000162802
0.000166195
0.000162418
0.000151917
0.000140579
0.000352225
0.000417455
0.000283796
)
;
    }
    sWall
    {
        type            nutkWallFunction;
        Cmu             0.09;
        kappa           0.41;
        E               9.8;
        value           uniform 0.000247185;
    }
    nWall
    {
        type            nutkWallFunction;
        Cmu             0.09;
        kappa           0.41;
        E               9.8;
        value           nonuniform List<scalar> 6(0.000109634 0.000115228 0.000134291 0.00014941 0.000151392 0.00014059);
    }
    sideWalls
    {
        type            empty;
    }
    glass1
    {
        type            nutkWallFunction;
        Cmu             0.09;
        kappa           0.41;
        E               9.8;
        value           nonuniform List<scalar> 9(0.00010924 0.000156107 0.00019555 0.000234104 0.00027278 0.00031242 0.000350768 0.000359751 0.000352697);
    }
    glass2
    {
        type            nutkWallFunction;
        Cmu             0.09;
        kappa           0.41;
        E               9.8;
        value           nonuniform List<scalar> 2(0.000199106 0.000182833);
    }
    sun
    {
        type            nutkWallFunction;
        Cmu             0.09;
        kappa           0.41;
        E               9.8;
        value           nonuniform List<scalar> 
14
(
0.000109194
0.000116216
0.000116166
0.000120767
0.000124911
0.000128641
0.000132116
0.000135515
0.000138857
0.000141394
0.000142697
0.000142215
0.000139465
0.000134469
)
;
    }
    heatsource1
    {
        type            nutkWallFunction;
        Cmu             0.09;
        kappa           0.41;
        E               9.8;
        value           nonuniform List<scalar> 3(8.23015e-05 9.80665e-05 0.000109629);
    }
    heatsource2
    {
        type            nutkWallFunction;
        Cmu             0.09;
        kappa           0.41;
        E               9.8;
        value           nonuniform List<scalar> 4(0.000129076 8.03258e-05 8.03258e-05 0.000120178);
    }
    Table_master
    {
        type            nutkWallFunction;
        Cmu             0.09;
        kappa           0.41;
        E               9.8;
        value           nonuniform List<scalar> 9(8.52422e-05 7.68439e-05 6.98879e-05 6.41123e-05 5.92716e-05 5.51749e-05 5.16966e-05 4.87912e-05 4.65114e-05);
    }
    Table_slave
    {
        type            nutkWallFunction;
        Cmu             0.09;
        kappa           0.41;
        E               9.8;
        value           nonuniform List<scalar> 9(9.51165e-05 8.93972e-05 8.60746e-05 8.38076e-05 8.16157e-05 7.87838e-05 7.56863e-05 7.21664e-05 6.77257e-05);
    }
    inlet
    {
        type            calculated;
        value           uniform 0.000100623;
    }
    outlet
    {
        type            calculated;
        value           nonuniform List<scalar> 2(0.00212831 0.00224959);
    }
}


// ************************************************************************* //
