/*--------------------------------*- C++ -*----------------------------------*\
  =========                 |
  \\      /  F ield         | OpenFOAM: The Open Source CFD Toolbox
   \\    /   O peration     | Website:  https://openfoam.org
    \\  /    A nd           | Version:  6
     \\/     M anipulation  |
\*---------------------------------------------------------------------------*/
FoamFile
{
    version     2.0;
    format      ascii;
    class       surfaceScalarField;
    location    "100";
    object      phi;
}
// * * * * * * * * * * * * * * * * * * * * * * * * * * * * * * * * * * * * * //

dimensions      [1 0 -1 0 0 0 0];

internalField   nonuniform List<scalar> 
852
(
-0.00291441
0.00298001
-0.0036903
0.000775972
-0.00438954
0.000699332
-0.0050016
0.000612136
-0.00548577
0.00048425
-0.00581841
0.000332722
-0.00597502
0.000156688
-0.005927
-4.79442e-05
-0.00564222
-0.000284706
-0.0051038
-0.000538341
-0.00432794
-0.000775786
-0.00336879
-0.000959075
-0.00230853
-0.00106019
-0.00120595
-0.0011025
-0.00120322
-0.000625094
0.000629871
-0.000103337
-0.00052168
0.000579718
-0.000682971
0.00103236
-0.000452556
0.00132227
-0.000289831
0.00150583
-0.000183477
0.00159712
-9.12191e-05
0.00163247
-3.5274e-05
0.00164882
-1.6287e-05
0.00165955
-1.06681e-05
0.00166739
-7.79505e-06
0.00167216
-4.72474e-06
0.00167024
1.95847e-06
0.00165118
1.90849e-05
0.00159028
6.09307e-05
0.00144735
0.000142946
0.00120572
0.000241652
0.000890142
0.000315587
0.00089607
-0.00208963
0.00524454
-0.00298037
0.0016668
-0.00376283
0.00148187
-0.00438816
0.00123754
-0.00487441
0.000970574
-0.00521427
0.000672647
-0.00538667
0.000329159
-0.0053628
-7.17535e-05
-0.00511598
-0.000531463
-0.00463569
-0.00101856
-0.00394505
-0.00146637
-0.00309918
-0.00180488
-0.00218699
-0.00197231
-0.00137554
-0.00191389
-0.00100449
-0.00157419
-0.000170319
-0.000834144
-0.000170293
0.00084636
-0.000204289
0.00112364
-0.000798884
0.00124677
-0.00080601
0.00142099
-0.000626691
0.00157805
-0.0004468
0.00168268
-0.00028802
0.00169367
-0.000102127
0.00169039
-3.19143e-05
0.00168969
-1.55106e-05
0.00168969
-1.05937e-05
0.0016894
-7.43874e-06
0.00168869
-3.95784e-06
0.00168642
4.27022e-06
0.00167842
2.71255e-05
0.00163463
0.00010475
0.00145235
0.000325242
0.00113593
0.000558095
0.000739892
0.000711634
0.00165118
-0.00149537
0.00700481
-0.00234892
0.00252043
-0.00307997
0.00221301
-0.00363971
0.00179734
-0.00408719
0.00141812
-0.00441646
0.00100199
-0.00460042
0.000513183
-0.00460294
-6.91805e-05
-0.00438969
-0.000744659
-0.00395638
-0.00145181
-0.00333688
-0.00208582
-0.00258884
-0.00255287
-0.00179529
-0.00276581
-0.00108556
-0.00262356
-0.000549578
-0.00211011
-8.11657e-05
-0.00130249
-0.000251377
0.00123567
-0.00142544
0.00148085
-0.00104398
0.00148215
-0.00080722
0.00151706
-0.000661516
0.00159044
-0.00052009
0.00170011
-0.000397604
0.00159823
0.00156655
0.00155128
0.00154092
0.00153371
0.00152997
0.00153444
0.00156177
0.00166671
0.00137811
0.000613865
0.00102288
0.00091335
0.000594442
0.00114008
0.00226855
-0.00108131
0.00842557
-0.00184317
0.00328237
-0.00236219
0.00273211
-0.0027783
0.00221353
-0.00313647
0.00177635
-0.00342145
0.00128703
-0.00359767
0.00068946
-0.00361508
-5.17068e-05
-0.00342498
-0.000934711
-0.00303834
-0.00183839
-0.00250877
-0.00261534
-0.00189139
-0.0031702
-0.00124438
-0.00341276
-0.00065218
-0.00321571
-0.000142762
-0.00261947
0.00035429
-0.00179947
0.0011411
-0.00103812
0.0018912
-0.000735443
0.00136863
-0.000902793
0.00130097
-0.000976234
0.00129547
-0.000801643
0.0012928
-0.000658762
0.00130773
-0.000534947
0.00130198
-0.000391774
0.00151358
-0.000211675
0.00167596
-0.000162462
0.00182135
-0.000145461
0.00194601
-0.000124748
0.00203078
-8.48593e-05
0.00204672
-1.60206e-05
0.00196307
8.35521e-05
0.00174662
0.000216355
0.00134322
0.000403299
0.00116918
0.000787943
0.000822202
0.00126036
0.000303315
0.00165899
0.00260173
-0.000778455
0.00960552
-0.00143406
0.00393805
-0.0016093
0.00290743
-0.00182143
0.00242573
-0.00204454
0.00199953
-0.0022416
0.00148416
-0.0023728
0.000820719
-0.00237504
-4.9405e-05
-0.00218505
-0.00112464
-0.00185118
-0.0021722
-0.00144533
-0.00302114
-0.00100682
-0.00360866
-0.000562659
-0.00385688
-0.000168685
-0.00360963
0.000162486
-0.00295059
0.000486081
-0.00212301
0.000850805
-0.00140278
0.0011002
-0.000984776
0.00109447
-0.000896993
0.000984124
-0.000865814
0.000932008
-0.000749457
0.00090927
-0.000635953
0.000912052
-0.00053766
0.000956006
-0.000435661
0.0010867
-0.000342304
0.00122343
-0.000299125
0.00135729
-0.000279267
0.00148281
-0.00025021
0.00158649
-0.000188482
0.00164543
-7.49131e-05
0.00163335
9.56783e-05
0.00153572
0.000314032
0.0013568
0.000582263
0.00117964
0.000965148
0.00097366
0.00146637
0.000514469
0.0021182
0.000365246
0.00275097
-0.00119678
0.00156184
-0.00166968
0.000472709
-0.0016102
-0.00068572
0.0107446
-0.00120067
0.00445307
-0.000865786
0.00257262
-0.00077564
0.00233565
-0.000843751
0.00206771
-0.000929994
0.00157046
-0.000967491
0.000858279
-0.000889988
-0.000126846
-0.000679745
-0.00133482
-0.000426806
-0.00242508
-0.000189724
-0.00325816
2.1769e-05
-0.0038201
0.000211321
-0.00404638
0.000352305
-0.00375056
0.000447023
-0.00304526
0.000532607
-0.00220854
0.000617776
-0.00148789
0.000667198
-0.00103414
0.00062449
-0.000854222
0.000526705
-0.000767968
0.000460046
-0.000682737
0.00043028
-0.000606128
0.000434099
-0.000541421
0.000480518
-0.000482024
0.000573393
-0.000435127
0.000687989
-0.00041367
0.000811931
-0.000403162
0.000940893
-0.000379126
0.00106952
-0.000317063
0.00118596
-0.000191318
0.00126301
1.86732e-05
0.00128723
0.000289846
0.00127444
0.000595091
0.00127646
0.000963164
0.00135525
0.00138762
0.00152456
0.00194892
0.00204787
0.00222767
0.0023459
0.00126383
0.00194556
0.000873073
0.000406348
-0.000873903
0.0121171
-0.000860797
0.00444004
0.000151189
0.0015607
0.000539076
0.00194784
0.000572825
0.00203403
0.000581923
0.00156143
0.000693181
0.000747086
0.000898462
-0.00033206
0.00108698
-0.00152327
0.00118485
-0.00252288
0.00118207
-0.00325533
0.00111132
-0.00374929
0.00101094
-0.00394595
0.000868418
-0.00360799
0.000682775
-0.00285957
0.000493942
-0.00201966
0.000337362
-0.00133126
0.000222488
-0.000919211
0.0001154
-0.000747081
1.45986e-05
-0.000667113
-5.79897e-05
-0.000610098
-9.85425e-05
-0.000565527
-0.000109448
-0.00053047
-8.7839e-05
-0.000503589
-3.44068e-05
-0.000488517
4.02199e-05
-0.000488258
0.000129084
-0.000491989
0.000232861
-0.000482869
0.000357067
-0.000441236
0.00050686
-0.000341079
0.000675601
-0.000150036
0.000838341
0.000127138
0.000991572
0.000441892
0.00118258
0.00077219
0.00147778
0.00109245
0.00196699
0.00145975
0.00275444
0.00144024
0.00340008
0.000618212
0.00348776
0.000785408
0.00396918
0.00253414
0.0101385
0.00310967
0.00386459
0.00316194
0.00150851
0.00309217
0.00201768
0.00293356
0.00219271
0.00288527
0.00160978
0.00299718
0.000635254
0.00315486
-0.000489679
0.00313877
-0.0015071
0.00291609
-0.00230014
0.00254293
-0.00288211
0.00212358
-0.00332989
0.00172465
-0.00354697
0.00127503
-0.00315831
0.000778736
-0.00236323
0.000315538
-0.00155642
-3.64949e-05
-0.000979187
-0.00025372
-0.00070194
-0.00039878
-0.000601976
-0.000509268
-0.000556582
-0.000593413
-0.000525913
-0.000655969
-0.000502931
-0.000699528
-0.000486875
-0.000724485
-0.000478597
-0.00073306
-0.00047991
-0.000731123
-0.000490164
-0.000721248
-0.000501835
-0.000700447
-0.000503642
-0.000658724
-0.000482934
-0.000574609
-0.000425167
-0.000413606
-0.000311013
-0.000178997
-0.000107443
8.48507e-05
0.00017807
0.000377808
0.000479261
0.000719391
0.000750896
0.00117697
0.00100219
0.00165516
0.000962083
0.00173901
0.000534375
0.000839941
0.0016845
0.0051371
0.010754
0.0146165
0.0127416
0.0033835
0.010771
0.00398834
0.00924662
0.00371719
0.00822271
0.00263377
0.00741302
0.00144502
0.00656112
0.000362295
0.00559749
-0.000543391
0.00456467
-0.00126725
0.00355413
-0.00187151
0.0027176
-0.00249331
0.00208811
-0.00291743
0.00138083
-0.00245099
0.000585879
-0.00156824
-8.62991e-05
-0.000884203
-0.000507208
-0.000558238
-0.000738537
-0.000470572
-0.000894385
-0.00044609
-0.00101733
-0.000433603
-0.00112222
-0.00042099
-0.00121683
-0.000408287
-0.00130606
-0.000397615
-0.00139377
-0.000390868
-0.00148475
-0.000388897
-0.00158524
-0.000389655
-0.00170088
-0.000386165
-0.00183774
-0.000366761
-0.00200428
-0.000316372
-0.00221217
-0.000217254
-0.00247733
-4.58274e-05
-0.00279063
0.000205877
-0.0031701
0.000557562
-0.0037209
0.00103009
-0.0045769
0.00160691
-0.00579267
0.00221798
-0.00747151
0.00264094
-0.00944683
0.00250972
-0.00873127
0.00096895
-0.00322887
0.00455819
0.00474004
0.00452483
0.00402175
0.00560102
0.00264107
0.00591038
0.00232447
0.00571218
0.00164329
0.00530701
0.000767522
0.00470966
5.4016e-05
0.00388797
-0.000445504
0.00296189
-0.000945378
0.00222828
-0.00175965
0.00171111
-0.00240021
0.000945275
-0.00168511
-5.8693e-05
-0.000564232
-0.000701472
-0.000241388
-0.0010232
-0.000236473
-0.00121132
-0.000282423
-0.00135294
-0.000304442
-0.00147704
-0.00030947
-0.0015936
-0.000304399
-0.00170872
-0.000293144
-0.00182769
-0.000278624
-0.00195616
-0.000262369
-0.00210031
-0.000244726
-0.00226522
-0.000224726
-0.00245199
-0.000199374
-0.00265572
-0.000163009
-0.00286429
-0.000107782
-0.00305373
-2.77885e-05
-0.00320299
0.000103451
-0.00331946
0.000322369
-0.00341946
0.00065758
-0.00352118
0.00113183
-0.00363668
0.00172244
-0.00370598
0.0022873
-0.00361429
0.00254927
-0.00314354
0.00203898
-0.00174961
-0.000424962
-0.00488496
-0.00084293
0.00564316
0.000984067
0.0021948
0.00194571
0.00167948
0.0026124
0.00165783
0.00298599
0.00126976
0.00306462
0.000688945
0.00284704
0.000271638
0.00245313
-5.15475e-05
0.00191906
-0.000411263
0.00134046
-0.00118102
0.000596768
-0.00165644
-0.000330334
-0.000757973
-0.0010489
0.00015437
-0.0013629
7.26466e-05
-0.00152221
-7.71362e-05
-0.00165225
-0.000152351
-0.00177845
-0.000178215
-0.00190287
-0.000185017
-0.00202311
-0.000184142
-0.00213749
-0.000178736
-0.00224569
-0.000170405
-0.00234861
-0.000159428
-0.00244804
-0.000145271
-0.00254576
-0.00012699
-0.00264211
-0.000102997
-0.00273458
-7.05231e-05
-0.00281762
-2.47233e-05
-0.00288045
3.50602e-05
-0.00289068
0.000113696
-0.00281207
0.000243775
-0.00260347
0.000449005
-0.0022313
0.000759674
-0.00170688
0.00119804
-0.0010261
0.00160654
4.96556e-05
0.00147353
0.00138469
0.000703961
0.001623
-0.000663256
-0.00315919
-0.00878626
-0.0115821
-0.00588719
-0.00366045
-0.00195443
-0.000272494
0.0010203
0.00173314
0.00203019
0.00200595
0.00162363
0.000473197
-0.0011555
-0.00188955
-0.00171281
-0.0016181
-0.00167288
-0.0018027
-0.00195826
-0.00212055
-0.00228192
-0.00243784
-0.0025854
-0.00272196
-0.0028444
-0.00294864
-0.00302907
-0.00307729
-0.00308009
-0.00302363
-0.00288916
-0.00262532
-0.00215703
-0.00137893
-0.000163342
0.00145952
0.00294887
0.00366876
0.00302223
)
;

boundaryField
{
    floor
    {
        type            calculated;
        value           nonuniform List<scalar> 
29
(
0
0
0
0
0
0
0
0
0
0
0
0
0
0
0
0
0
0
0
0
-5.91466e-06
-1.5204e-05
-2.29211e-05
-2.98505e-05
-2.64949e-06
-4.70993e-06
-1.21296e-05
-1.444e-05
-1.45868e-05
)
;
    }
    ceiling
    {
        type            calculated;
        value           nonuniform List<scalar> 
43
(
-5.55776e-05
-5.35116e-05
-5.1669e-05
-3.18916e-05
-2.64848e-05
-2.40485e-05
-2.29769e-05
-2.38479e-05
-2.53724e-05
-2.72625e-05
-2.89086e-05
-3.05398e-05
-2.76573e-05
-2.38863e-05
-2.23404e-05
-2.20397e-05
-2.23241e-05
-2.25107e-05
-2.26284e-05
-2.26991e-05
-2.27499e-05
-2.27929e-05
-2.28271e-05
-2.28409e-05
-2.28149e-05
-2.27265e-05
-2.25552e-05
-2.22842e-05
-2.18998e-05
-2.13839e-05
-2.07589e-05
-2.00462e-05
-1.92602e-05
-1.84164e-05
-1.75301e-05
-1.63077e-05
-1.57927e-05
-1.59147e-05
-1.67075e-05
-1.70682e-05
4.49359e-06
2.09216e-06
-6.01657e-05
)
;
    }
    sWall
    {
        type            calculated;
        value           uniform -0.000261902;
    }
    nWall
    {
        type            calculated;
        value           nonuniform List<scalar> 6(-5.96715e-05 -7.09713e-05 -7.50475e-05 -9.35053e-05 -0.000102758 -0.000119878);
    }
    sideWalls
    {
        type            empty;
        value           nonuniform 0();
    }
    glass1
    {
        type            calculated;
        value           nonuniform List<scalar> 9(-6.55068e-05 -0.000174813 -0.000264816 -0.000339373 -0.000401412 -0.000453266 -0.000498547 -0.000555474 -0.000619874);
    }
    glass2
    {
        type            calculated;
        value           nonuniform List<scalar> 2(-0.000327962 -0.000365282);
    }
    sun
    {
        type            calculated;
        value           uniform 0;
    }
    heatsource1
    {
        type            calculated;
        value           nonuniform List<scalar> 3(2.05889e-07 2.05762e-07 2.05779e-07);
    }
    heatsource2
    {
        type            calculated;
        value           nonuniform List<scalar> 4(5.15232e-08 5.16825e-08 0 0);
    }
    Table_master
    {
        type            calculated;
        value           nonuniform List<scalar> 9(-1.54392e-07 -1.5448e-07 -1.54516e-07 -1.54544e-07 -1.54567e-07 -1.54586e-07 -1.546e-07 -1.54603e-07 -1.54575e-07);
    }
    Table_slave
    {
        type            calculated;
        value           nonuniform List<scalar> 9(1.54345e-07 1.54345e-07 1.54306e-07 1.54272e-07 1.54253e-07 1.54258e-07 1.54272e-07 1.54317e-07 1.54409e-07);
    }
    inlet
    {
        type            calculated;
        value           uniform -0.0059147;
    }
    outlet
    {
        type            calculated;
        value           nonuniform List<scalar> 2(0.00910378 0.00284935);
    }
}


// ************************************************************************* //
