// -*- C++ -*-
// File generated by PyFoam - sorry for the ugliness

FoamFile
{
 version 2.0;
 format ascii;
 class volScalarField;
 location "100";
 object T;
}

dimensions [ 0 0 0 1 0 0 0 ];

internalField nonuniform List<scalar> 459
(
  302.251
  301.942
  301.935
  301.936
  301.937
  301.938
  301.937
  301.937
  301.935
  301.931
  301.924
  301.915
  301.906
  301.899
  301.897
  301.913
  301.901
  301.898
  301.893
  301.887
  301.881
  301.875
  301.87
  301.865
  301.861
  301.859
  301.857
  301.856
  301.857
  301.858
  301.86
  301.863
  301.868
  301.892
  302.473
  301.979
  301.959
  301.968
  301.976
  301.983
  301.988
  301.99
  301.989
  301.982
  301.966
  301.944
  301.922
  301.905
  301.892
  301.875
  301.818
  301.92
  301.916
  301.912
  301.907
  301.899
  301.891
  301.878
  301.866
  301.854
  301.843
  301.833
  301.825
  301.818
  301.814
  301.812
  301.813
  301.818
  301.828
  301.872
  302.698
  302.029
  301.99
  302.006
  302.026
  302.042
  302.055
  302.064
  302.065
  302.053
  302.025
  301.985
  301.945
  301.919
  301.909
  301.905
  301.885
  301.944
  301.939
  301.935
  301.931
  301.925
  301.918
  301.902
  301.884
  301.868
  301.852
  301.838
  301.826
  301.816
  301.808
  301.802
  301.802
  301.805
  301.814
  301.864
  302.917
  302.093
  302.02
  302.042
  302.073
  302.104
  302.131
  302.15
  302.157
  302.141
  302.096
  302.03
  301.964
  301.925
  301.917
  301.924
  301.93
  301.943
  301.948
  301.955
  301.957
  301.956
  301.953
  301.948
  301.943
  301.938
  301.934
  301.93
  301.926
  301.921
  301.915
  301.909
  301.901
  301.863
  301.833
  301.821
  301.865
  303.124
  302.176
  302.052
  302.068
  302.108
  302.152
  302.194
  302.23
  302.246
  302.23
  302.169
  302.073
  301.978
  301.926
  301.919
  301.935
  301.951
  301.964
  301.974
  301.981
  301.984
  301.984
  301.982
  301.979
  301.977
  301.974
  301.972
  301.969
  301.965
  301.959
  301.95
  301.939
  301.924
  301.895
  301.859
  301.833
  301.858
  301.95
  301.992
  302.002
  303.305
  302.282
  302.11
  302.091
  302.126
  302.173
  302.225
  302.278
  302.315
  302.302
  302.226
  302.104
  301.984
  301.923
  301.919
  301.944
  301.971
  301.99
  302.002
  302.009
  302.012
  302.013
  302.011
  302.009
  302.008
  302.007
  302.005
  302.003
  301.998
  301.99
  301.978
  301.963
  301.944
  301.917
  301.883
  301.851
  301.855
  301.894
  301.911
  301.955
  303.454
  302.459
  302.275
  302.194
  302.181
  302.202
  302.244
  302.307
  302.358
  302.34
  302.249
  302.109
  301.979
  301.916
  301.917
  301.953
  301.992
  302.018
  302.031
  302.038
  302.04
  302.041
  302.04
  302.039
  302.039
  302.038
  302.036
  302.033
  302.027
  302.018
  302.004
  301.985
  301.963
  301.937
  301.906
  301.875
  301.866
  301.878
  301.892
  301.928
  303.692
  302.954
  302.745
  302.568
  302.445
  302.386
  302.377
  302.407
  302.414
  302.356
  302.233
  302.072
  301.94
  301.894
  301.914
  301.968
  302.019
  302.048
  302.06
  302.065
  302.067
  302.068
  302.068
  302.067
  302.067
  302.066
  302.063
  302.06
  302.054
  302.045
  302.033
  302.014
  301.992
  301.968
  301.945
  301.923
  301.921
  301.948
  301.982
  302.161
  304.03
  303.701
  303.389
  303.115
  302.898
  302.744
  302.648
  302.577
  302.465
  302.309
  302.134
  301.959
  301.856
  301.863
  301.919
  301.996
  302.053
  302.077
  302.086
  302.09
  302.092
  302.093
  302.093
  302.093
  302.093
  302.092
  302.09
  302.087
  302.083
  302.079
  302.077
  302.078
  302.083
  302.095
  302.119
  302.156
  302.207
  302.256
  302.286
  302.359
  295.475
  299.205
  300.899
  301.508
  301.749
  301.822
  301.842
  301.829
  301.785
  301.72
  301.749
  301.858
  301.954
  302.046
  302.087
  302.104
  302.111
  302.114
  302.116
  302.116
  302.117
  302.118
  302.118
  302.119
  302.119
  302.12
  302.122
  302.124
  302.128
  302.132
  302.14
  302.153
  302.175
  302.206
  302.241
  302.272
  302.291
  302.31
  296.319
  299.172
  300.427
  301.032
  301.333
  301.461
  301.508
  301.539
  301.553
  301.563
  301.749
  301.955
  302.051
  302.096
  302.12
  302.131
  302.135
  302.138
  302.139
  302.14
  302.141
  302.141
  302.142
  302.143
  302.144
  302.146
  302.148
  302.151
  302.154
  302.158
  302.165
  302.175
  302.19
  302.212
  302.236
  302.261
  302.257
  302.29
  298.268
  298.207
  298.203
  300.01
  300.7
  301.05
  301.304
  301.38
  301.415
  301.435
  301.456
  301.499
  301.897
  302.114
  302.138
  302.158
  302.169
  302.174
  302.177
  302.178
  302.18
  302.181
  302.181
  302.182
  302.182
  302.182
  302.182
  302.182
  302.182
  302.182
  302.182
  302.182
  302.184
  302.188
  302.195
  302.212
  302.225
  302.234
  302.238
  302.277
)
;

boundaryField
{
  floor
  {
    type wallHeatTransfer;
    Tinf uniform 305.2;
    alphaWall uniform 0.24;
    value nonuniform List<scalar> 29
(
  302.248
  302.538
  302.461
  302.436
  302.439
  302.445
  302.453
  302.465
  302.479
  302.494
  302.509
  302.524
  302.538
  302.553
  302.567
  302.582
  302.598
  302.616
  302.627
  302.678
  302.678
  302.546
  302.474
  302.433
  302.248
  302.538
  302.456
  302.328
  302.269
)
;
  }
  ceiling
  {
    type wallHeatTransfer;
    Tinf uniform 303.2;
    alphaWall uniform 0.24;
    value nonuniform List<scalar> 43
(
  298.57
  298.499
  298.485
  300.182
  300.842
  301.179
  301.427
  301.508
  301.551
  301.582
  301.612
  301.664
  302.046
  302.243
  302.259
  302.276
  302.289
  302.295
  302.299
  302.301
  302.302
  302.304
  302.305
  302.305
  302.305
  302.305
  302.304
  302.303
  302.3
  302.297
  302.294
  302.29
  302.288
  302.287
  302.289
  302.299
  302.309
  302.319
  302.327
  302.368
  303.992
  303.682
  296.689
)
;
  }
  sWall
  {
    type wallHeatTransfer;
    Tinf uniform 315.2;
    alphaWall uniform 0.36;
    value uniform 299.779;
  }
  nWall
  {
    type wallHeatTransfer;
    Tinf uniform 307.2;
    alphaWall uniform 0.36;
    value nonuniform List<scalar> 6
(
  302.886
  302.815
  302.701
  302.972
  302.948
  302.975
)
;
  }
  sideWalls
  {
    type empty;
  }
  glass1
  {
    type wallHeatTransfer;
    Tinf uniform 315.2;
    alphaWall uniform 4.3;
    value nonuniform List<scalar> 9
(
  311.515
  310.716
  310.197
  309.787
  309.45
  309.155
  308.907
  308.967
  309.204
)
;
  }
  glass2
  {
    type wallHeatTransfer;
    Tinf uniform 307.2;
    alphaWall uniform 4.3;
    value nonuniform List<scalar> 2
(
  305.145
  305.317
)
;
  }
  sun
  {
    type wallHeatTransfer;
    Tinf uniform 305.2;
    alphaWall uniform 0.24;
    value nonuniform List<scalar> 14
(
  302.606
  302.316
  302.31
  302.3
  302.292
  302.284
  302.277
  302.269
  302.261
  302.253
  302.244
  302.237
  302.234
  302.237
)
;
  }
  heatsource1
  {
    type fixedGradient;
    gradient uniform 0;
  }
  heatsource2
  {
    type fixedGradient;
    gradient uniform 0;
  }
  Table_master
  {
    type zeroGradient;
  }
  Table_slave
  {
    type zeroGradient;
  }
  inlet
  {
    type fixedValue;
    value uniform 290.15;
  }
  outlet
  {
    type zeroGradient;
  }
} 	// ************************************************************************* //

