// -*- C++ -*-
// File generated by PyFoam - sorry for the ugliness

FoamFile
{
 version 2.0;
 format ascii;
 class volVectorField;
 location "100";
 object U;
}

dimensions [ 0 1 -1 0 0 0 0 ];

internalField nonuniform List<vector> 459
(
  (0.0594531 0.0829249 0)
  (-0.161555 0.0185275 0)
  (-0.174392 0.0159731 0)
  (-0.203155 0.0127694 0)
  (-0.226811 0.00864382 0)
  (-0.24455 0.00408501 0)
  (-0.255306 -0.000946294 0)
  (-0.25768 -0.00658306 0)
  (-0.250071 -0.0130091 0)
  (-0.231803 -0.0201287 0)
  (-0.202803 -0.0271831 0)
  (-0.164381 -0.0333456 0)
  (-0.11963 -0.0382314 0)
  (-0.076796 -0.0426424 0)
  (-0.058745 -0.047423 0)
  (0.0191738 0.00981275 0)
  (-0.017001 -0.0225127 0)
  (0.0136084 -0.0283579 0)
  (0.0334387 -0.0200324 0)
  (0.0499653 -0.0134711 0)
  (0.0611765 -0.00885605 0)
  (0.0673102 -0.0053507 0)
  (0.0698861 -0.00352084 0)
  (0.070681 -0.00282972 0)
  (0.0709946 -0.00257424 0)
  (0.0712965 -0.00242157 0)
  (0.0715749 -0.00226792 0)
  (0.0716773 -0.00203059 0)
  (0.0713115 -0.00152705 0)
  (0.069822 -0.000381444 0)
  (0.0659191 0.00192566 0)
  (0.0581989 0.00451845 0)
  (0.0507748 0.00706334 0)
  (-0.0135323 0.0254102 0)
  (0.256136 0.173131 0)
  (-0.1631 0.0525635 0)
  (-0.144849 0.047254 0)
  (-0.176582 0.0405142 0)
  (-0.200438 0.032269 0)
  (-0.218398 0.0228102 0)
  (-0.229684 0.0117783 0)
  (-0.233007 -0.00124043 0)
  (-0.226668 -0.0163841 0)
  (-0.210482 -0.0325138 0)
  (-0.184626 -0.0475235 0)
  (-0.150847 -0.0590781 0)
  (-0.112546 -0.0651773 0)
  (-0.075876 -0.0646153 0)
  (-0.0489961 -0.0563015 0)
  (-0.0273398 -0.0319179 0)
  (-0.00525519 0.00605451 0)
  (0.10806 0.014321 0)
  (0.0456816 -0.0201687 0)
  (0.044716 -0.0284645 0)
  (0.0557597 -0.0231463 0)
  (0.0645601 -0.0160964 0)
  (0.070362 -0.00979967 0)
  (0.0730379 -0.00302187 0)
  (0.0730726 0.000711099 0)
  (0.0725348 0.00201 0)
  (0.0723315 0.00232507 0)
  (0.0723527 0.00237675 0)
  (0.0723796 0.00242511 0)
  (0.0723415 0.00268569 0)
  (0.0721659 0.00351352 0)
  (0.0712933 0.00581693 0)
  (0.0672557 0.0121984 0)
  (0.0570854 0.0179485 0)
  (0.0534238 0.0223945 0)
  (-0.0609051 0.053852 0)
  (0.432913 0.261288 0)
  (-0.195316 0.0891905 0)
  (-0.111167 0.0789606 0)
  (-0.145486 0.06489 0)
  (-0.167184 0.0506669 0)
  (-0.184237 0.0349262 0)
  (-0.195727 0.0167198 0)
  (-0.200068 -0.00454138 0)
  (-0.194738 -0.0287545 0)
  (-0.180122 -0.0542798 0)
  (-0.156796 -0.0775113 0)
  (-0.126835 -0.0947868 0)
  (-0.0933305 -0.102708 0)
  (-0.0610023 -0.0979112 0)
  (-0.0344306 -0.0793167 0)
  (-0.0136177 -0.0469114 0)
  (0.00753303 -0.00462206 0)
  (0.119868 -0.0581483 0)
  (0.0621031 -0.0494266 0)
  (0.0574152 -0.0390237 0)
  (0.0628592 -0.0298439 0)
  (0.0668628 -0.0222261 0)
  (0.0699868 -0.0165804 0)
  (0.0719983 -0.0124 0)
  (0.0690394 -0.00860387 0)
  (0.0666624 -0.00671468 0)
  (0.0658865 -0.00575325 0)
  (0.065731 -0.00518033 0)
  (0.0656145 -0.00477523 0)
  (0.0655957 -0.00433627 0)
  (0.0662704 -0.00346015 0)
  (0.0689853 -0.000106808 0)
  (0.0669042 0.0175247 0)
  (0.0528671 0.0303478 0)
  (0.0600239 0.0392475 0)
  (-0.104162 0.0822986 0)
  (0.586824 0.333462 0)
  (-0.242527 0.125189 0)
  (-0.0731212 0.106962 0)
  (-0.111112 0.086524 0)
  (-0.127963 0.0685989 0)
  (-0.142263 0.0486914 0)
  (-0.152932 0.0248427 0)
  (-0.157728 -0.00405299 0)
  (-0.152621 -0.0375149 0)
  (-0.139143 -0.0722476 0)
  (-0.118788 -0.102917 0)
  (-0.0937828 -0.125131 0)
  (-0.0663937 -0.134886 0)
  (-0.0401212 -0.127451 0)
  (-0.0174239 -0.10353 0)
  (0.0037452 -0.0676894 0)
  (0.0311803 -0.0322246 0)
  (0.064743 0.0171955 0)
  (0.0743452 -0.0332934 0)
  (0.0590643 -0.0401575 0)
  (0.0540629 -0.033818 0)
  (0.0546762 -0.0280129 0)
  (0.0555065 -0.0225182 0)
  (0.0561311 -0.0160858 0)
  (0.0595161 -0.0103587 0)
  (0.0675956 -0.0083459 0)
  (0.0750334 -0.00718079 0)
  (0.0809833 -0.00622322 0)
  (0.0854928 -0.00499626 0)
  (0.0879918 -0.00320882 0)
  (0.086927 -0.000636286 0)
  (0.080914 0.0029853 0)
  (0.0672728 0.00815057 0)
  (0.054259 0.0289496 0)
  (0.0401649 0.0469762 0)
  (0.0652084 0.0609708 0)
  (-0.154592 0.105808 0)
  (0.715536 0.391166 0)
  (-0.291916 0.158122 0)
  (-0.0331557 0.124533 0)
  (-0.0735849 0.101063 0)
  (-0.0837707 0.0816264 0)
  (-0.0933042 0.0594491 0)
  (-0.101548 0.0316171 0)
  (-0.10533 -0.00369767 0)
  (-0.0986864 -0.0454986 0)
  (-0.0859024 -0.0879125 0)
  (-0.0696556 -0.123552 0)
  (-0.0515514 -0.148508 0)
  (-0.0325589 -0.159126 0)
  (-0.0152498 -0.149486 0)
  (-0.000505529 -0.121969 0)
  (0.0128523 -0.0865725 0)
  (0.0280818 -0.0558899 0)
  (0.0429163 -0.0410111 0)
  (0.0485061 -0.0455735 0)
  (0.0453077 -0.0411642 0)
  (0.0408633 -0.033881 0)
  (0.03902 -0.0280695 0)
  (0.0386965 -0.023116 0)
  (0.0397308 -0.0179185 0)
  (0.0432753 -0.0124142 0)
  (0.0492458 -0.00984192 0)
  (0.0553049 -0.00872924 0)
  (0.0609213 -0.00748652 0)
  (0.065892 -0.00511321 0)
  (0.0696061 -0.000930959 0)
  (0.0710534 0.00508173 0)
  (0.0690226 0.0127676 0)
  (0.0630355 0.0226152 0)
  (0.0549608 0.0393966 0)
  (0.041585 0.0597796 0)
  (0.073329 0.0826994 0)
  (-0.0447983 0.118406 0)
  (0.0501841 0.024761 0)
  (-0.0737338 -0.0397574 0)
  (-0.298721 -0.0642373 0)
  (0.804768 0.441106 0)
  (-0.335393 0.183688 0)
  (-0.00138849 0.123611 0)
  (-0.0321753 0.10781 0)
  (-0.0354164 0.0897821 0)
  (-0.0395729 0.0664881 0)
  (-0.044143 0.0366298 0)
  (-0.0438761 -0.00338833 0)
  (-0.0326063 -0.0537971 0)
  (-0.0211335 -0.101431 0)
  (-0.0111164 -0.138398 0)
  (-0.00221695 -0.163259 0)
  (0.006228 -0.173098 0)
  (0.0125972 -0.160635 0)
  (0.0166299 -0.131158 0)
  (0.0196814 -0.0956281 0)
  (0.0239272 -0.0644909 0)
  (0.0279807 -0.0453622 0)
  (0.0283775 -0.0388858 0)
  (0.0249092 -0.0350481 0)
  (0.0208998 -0.0305389 0)
  (0.0187054 -0.0265538 0)
  (0.0181616 -0.0231081 0)
  (0.0192483 -0.0197033 0)
  (0.0222631 -0.0166844 0)
  (0.0268629 -0.0153797 0)
  (0.0320425 -0.0147699 0)
  (0.0374449 -0.0135908 0)
  (0.0429376 -0.0108018 0)
  (0.0482005 -0.00542911 0)
  (0.0530561 0.00307396 0)
  (0.0553924 0.0138043 0)
  (0.0556004 0.0264896 0)
  (0.0554772 0.0428543 0)
  (0.0518633 0.0630223 0)
  (0.0814756 0.0897125 0)
  (0.0480159 0.11067 0)
  (0.102619 0.071635 0)
  (0.128093 0.0464779 0)
  (-0.144188 -0.0105925 0)
  (0.841208 0.486523 0)
  (-0.355648 0.172729 0)
  (0.0217908 0.0755732 0)
  (0.0248727 0.0999111 0)
  (0.0243892 0.097157 0)
  (0.0225836 0.0717939 0)
  (0.0218889 0.036288 0)
  (0.0317312 -0.012129 0)
  (0.0461003 -0.0662695 0)
  (0.0526854 -0.111305 0)
  (0.0531607 -0.144233 0)
  (0.0502461 -0.166144 0)
  (0.0461949 -0.174446 0)
  (0.0408103 -0.160446 0)
  (0.0328252 -0.129135 0)
  (0.0235442 -0.0930167 0)
  (0.0165889 -0.0622585 0)
  (0.0116464 -0.0429031 0)
  (0.0072819 -0.0345194 0)
  (0.00267576 -0.0306425 0)
  (-0.00125896 -0.0274978 0)
  (-0.00366935 -0.0249708 0)
  (-0.00475104 -0.0229391 0)
  (-0.00449684 -0.0212101 0)
  (-0.00283165 -0.0200039 0)
  (-1.02652e-05 -0.0196972 0)
  (0.00349678 -0.0196826 0)
  (0.00751519 -0.0190529 0)
  (0.012206 -0.0168534 0)
  (0.0177751 -0.0119078 0)
  (0.0247824 -0.00291021 0)
  (0.0331501 0.00962347 0)
  (0.0396433 0.0232433 0)
  (0.0470308 0.0384245 0)
  (0.0537801 0.0552669 0)
  (0.0803119 0.0771371 0)
  (0.0918133 0.0846999 0)
  (0.131891 0.0526215 0)
  (0.176808 0.0425492 0)
  (-0.0288448 0.0999883 0)
  (0.943998 0.497247 0)
  (-0.101579 0.156183 0)
  (0.0990851 0.00521415 0)
  (0.150767 0.0327963 0)
  (0.136242 0.0564069 0)
  (0.122369 0.0412017 0)
  (0.120275 0.00422821 0)
  (0.132714 -0.0393811 0)
  (0.140324 -0.0776971 0)
  (0.134281 -0.110296 0)
  (0.119005 -0.135907 0)
  (0.10009 -0.155238 0)
  (0.0820337 -0.163579 0)
  (0.0647687 -0.147974 0)
  (0.0440744 -0.114692 0)
  (0.0211653 -0.0789126 0)
  (0.00396415 -0.0507602 0)
  (-0.00732036 -0.0349056 0)
  (-0.0143715 -0.0289704 0)
  (-0.0197452 -0.0262771 0)
  (-0.0238973 -0.024428 0)
  (-0.0269996 -0.0230245 0)
  (-0.0292438 -0.0219948 0)
  (-0.0306709 -0.0213486 0)
  (-0.0313282 -0.0211975 0)
  (-0.0314303 -0.0215571 0)
  (-0.0312003 -0.0220727 0)
  (-0.0306393 -0.022229 0)
  (-0.029507 -0.0214569 0)
  (-0.0273246 -0.0190916 0)
  (-0.0230781 -0.0143029 0)
  (-0.0132928 -0.00613934 0)
  (-0.00103597 0.00517564 0)
  (0.0105052 0.0167477 0)
  (0.0216842 0.0261829 0)
  (0.0436568 0.0367726 0)
  (0.0619148 0.0288094 0)
  (0.0798771 -0.00476818 0)
  (0.144389 0.0514915 0)
  (-0.496308 0.236797 0)
  (1.08325 0.447026 0)
  (0.522141 0.293884 0)
  (0.528871 0.214428 0)
  (0.514676 0.17865 0)
  (0.439996 0.152894 0)
  (0.371696 0.112953 0)
  (0.332215 0.0652303 0)
  (0.302647 0.0157391 0)
  (0.263582 -0.0316285 0)
  (0.219223 -0.0705425 0)
  (0.173681 -0.100208 0)
  (0.132611 -0.124339 0)
  (0.100347 -0.137982 0)
  (0.0745183 -0.122271 0)
  (0.0436772 -0.0880445 0)
  (0.00756085 -0.0551343 0)
  (-0.0158669 -0.034249 0)
  (-0.0277678 -0.0270166 0)
  (-0.035468 -0.0246405 0)
  (-0.0412457 -0.0235308 0)
  (-0.0460334 -0.0226539 0)
  (-0.0502444 -0.0218868 0)
  (-0.0541309 -0.0212798 0)
  (-0.0578617 -0.020906 0)
  (-0.0616241 -0.0208136 0)
  (-0.0656769 -0.0209213 0)
  (-0.070285 -0.0209152 0)
  (-0.0756781 -0.0203008 0)
  (-0.0821191 -0.0184521 0)
  (-0.0900401 -0.014598 0)
  (-0.100166 -0.0077528 0)
  (-0.11314 0.00299361 0)
  (-0.126542 0.0174121 0)
  (-0.14462 0.0351443 0)
  (-0.174032 0.0554077 0)
  (-0.217019 0.0755652 0)
  (-0.278071 0.0893791 0)
  (-0.346697 0.0935889 0)
  (-0.421473 0.0894772 0)
  (-0.697364 0.0767025 0)
  (-0.34491 0.0723424 0)
  (0.165166 0.148027 0)
  (0.262214 0.142575 0)
  (0.254789 0.11197 0)
  (0.247212 0.0700218 0)
  (0.235574 0.026147 0)
  (0.217084 -0.0110567 0)
  (0.186791 -0.0377352 0)
  (0.147952 -0.0579837 0)
  (0.111749 -0.0815035 0)
  (0.0802323 -0.10092 0)
  (0.0555991 -0.0810516 0)
  (0.022928 -0.0469762 0)
  (-0.0211561 -0.0238156 0)
  (-0.0388349 -0.0177535 0)
  (-0.0487012 -0.0172416 0)
  (-0.0553256 -0.0178863 0)
  (-0.0608505 -0.0185734 0)
  (-0.0659273 -0.0191434 0)
  (-0.0708305 -0.0196564 0)
  (-0.0757831 -0.0201807 0)
  (-0.0810167 -0.0207456 0)
  (-0.0867999 -0.0213133 0)
  (-0.0934039 -0.0217172 0)
  (-0.100996 -0.0215874 0)
  (-0.109523 -0.0203219 0)
  (-0.1186 -0.0171148 0)
  (-0.127415 -0.0110702 0)
  (-0.134908 -0.00130065 0)
  (-0.140137 0.0119515 0)
  (-0.143933 0.0294107 0)
  (-0.14711 0.0515906 0)
  (-0.151405 0.0769607 0)
  (-0.157692 0.0999333 0)
  (-0.162413 0.107816 0)
  (-0.145062 0.0777936 0)
  (-0.0865981 -0.0339694 0)
  (-0.292316 -0.24575 0)
  (-0.145477 0.253546 0)
  (0.0812712 0.1628 0)
  (0.0756157 0.110504 0)
  (0.097407 0.0943527 0)
  (0.119902 0.0716364 0)
  (0.129905 0.0463408 0)
  (0.126591 0.030843 0)
  (0.115661 0.0217077 0)
  (0.0960234 0.00374815 0)
  (0.0773355 -0.0417619 0)
  (0.0352607 -0.077839 0)
  (0.00168118 -0.0282759 0)
  (-0.0297236 0.0433067 0)
  (-0.0533758 0.0493617 0)
  (-0.0627622 0.0447801 0)
  (-0.0684138 0.0410547 0)
  (-0.0736686 0.0404642 0)
  (-0.0790267 0.0412309 0)
  (-0.0842864 0.0426455 0)
  (-0.0893174 0.0444478 0)
  (-0.0940786 0.0464 0)
  (-0.0985896 0.0482926 0)
  (-0.102919 0.049918 0)
  (-0.107152 0.0510452 0)
  (-0.111342 0.0514362 0)
  (-0.115476 0.050864 0)
  (-0.119458 0.0490792 0)
  (-0.12293 0.0456291 0)
  (-0.124783 0.0420345 0)
  (-0.12322 0.0416678 0)
  (-0.116251 0.046696 0)
  (-0.102606 0.0586665 0)
  (-0.0830563 0.0774599 0)
  (-0.0592381 0.0972294 0)
  (-0.0342203 0.108308 0)
  (0.010531 0.0900112 0)
  (0.143617 0.00881325 0)
  (-0.202355 -0.160777 0)
  (-0.168297 -0.382437 0)
  (-0.469009 -0.117142 0)
  (-0.3515 0.122639 0)
  (-0.202427 0.00772621 0)
  (-0.128435 -0.0187791 0)
  (-0.0525401 -0.0155164 0)
  (0.0197251 -0.0368221 0)
  (0.0560226 -0.0725462 0)
  (0.0792022 -0.107315 0)
  (0.0877637 -0.141719 0)
  (0.0822417 -0.168824 0)
  (0.0660269 -0.202536 0)
  (-0.0278898 -0.208704 0)
  (-0.0775707 -0.17768 0)
  (-0.0762603 -0.160295 0)
  (-0.0707753 -0.168218 0)
  (-0.0701856 -0.177678 0)
  (-0.07438 -0.180054 0)
  (-0.08065 -0.180637 0)
  (-0.087544 -0.180497 0)
  (-0.0945403 -0.180181 0)
  (-0.101381 -0.179835 0)
  (-0.107918 -0.179355 0)
  (-0.114046 -0.178457 0)
  (-0.119651 -0.176733 0)
  (-0.124586 -0.173707 0)
  (-0.128635 -0.168855 0)
  (-0.131493 -0.161602 0)
  (-0.132773 -0.151268 0)
  (-0.132027 -0.136999 0)
  (-0.128433 -0.119841 0)
  (-0.119729 -0.100796 0)
  (-0.102359 -0.0799366 0)
  (-0.0737423 -0.0565707 0)
  (-0.0358281 -0.0299615 0)
  (0.0313406 0.0036101 0)
  (0.0870143 0.00299083 0)
  (0.140611 -0.0247629 0)
  (0.190085 -0.0761457 0)
  (-0.143765 -0.152539 0)
)
;

boundaryField
{
  floor
  {
    type noSlip;
  }
  ceiling
  {
    type noSlip;
  }
  sWall
  {
    type noSlip;
  }
  nWall
  {
    type noSlip;
  }
  sideWalls
  {
    type empty;
  }
  glass1
  {
    type noSlip;
  }
  glass2
  {
    type noSlip;
  }
  sun
  {
    type noSlip;
  }
  heatsource1
  {
    type noSlip;
  }
  heatsource2
  {
    type noSlip;
  }
  Table_master
  {
    type noSlip;
  }
  Table_slave
  {
    type noSlip;
  }
  inlet
  {
    type fixedValue;
    value uniform (0.277164 -0.114805 0);
  }
  outlet
  {
    type zeroGradient;
  }
} 	// ************************************************************************* //

