/*--------------------------------*- C++ -*----------------------------------*\
  =========                 |
  \\      /  F ield         | OpenFOAM: The Open Source CFD Toolbox
   \\    /   O peration     | Website:  https://openfoam.org
    \\  /    A nd           | Version:  6
     \\/     M anipulation  |
\*---------------------------------------------------------------------------*/
FoamFile
{
    version     2.0;
    format      ascii;
    class       volScalarField;
    location    "1400";
    object      epsilon;
}
// * * * * * * * * * * * * * * * * * * * * * * * * * * * * * * * * * * * * * //

dimensions      [0 2 -3 0 0 0 0];

internalField   nonuniform List<scalar> 
459
(
0.000518629
0.000680679
0.000720378
0.00083228
0.000947157
0.00106531
0.00119234
0.00131815
0.00140777
0.00143987
0.00139821
0.00127929
0.00109484
0.000876181
0.000667694
4.68884e-05
8.2371e-05
0.000116671
0.000115287
0.000103764
8.9719e-05
7.38414e-05
6.00749e-05
4.91831e-05
4.07057e-05
3.40754e-05
2.88345e-05
2.4657e-05
2.12749e-05
1.84532e-05
1.59903e-05
1.37029e-05
1.25004e-05
9.71948e-06
0.00131029
0.00185754
0.000645378
0.000627812
0.00066339
0.00071968
0.000800107
0.000898792
0.000986244
0.0010352
0.00102621
0.000955399
0.000832119
0.000683588
0.000572535
0.000723407
0.000135495
5.66433e-05
0.000133062
0.000141437
0.000128894
0.000109765
9.18433e-05
8.25441e-05
6.67078e-05
5.27704e-05
4.17591e-05
3.32878e-05
2.67978e-05
2.18238e-05
1.80147e-05
1.51981e-05
1.34461e-05
1.27011e-05
3.47238e-05
2.31473e-05
0.0023765
0.00449595
0.000811768
0.000609267
0.000646251
0.000736025
0.000864064
0.00101344
0.00113924
0.00120732
0.0012019
0.00112708
0.00099496
0.000836856
0.000693987
0.000625896
0.000768576
0.000412732
0.0003001
0.000227902
0.000176704
0.000139437
0.000117355
0.000212979
0.000145777
0.00010345
7.60392e-05
5.77082e-05
4.50613e-05
3.61034e-05
2.96546e-05
2.50342e-05
1.89759e-05
1.60741e-05
6.80813e-05
3.73962e-05
0.00382111
0.00923534
0.00130309
0.000639044
0.000656533
0.000790566
0.00099771
0.00122058
0.00137717
0.00144406
0.00142141
0.00132365
0.00116042
0.000970553
0.000799821
0.000684167
0.000663618
0.00125997
0.000712366
0.000428083
0.000286643
0.000206558
0.000157195
0.000134274
0.000303804
0.000227494
0.000181515
0.000150833
0.000127526
0.000108542
9.21724e-05
7.69099e-05
6.15221e-05
3.61233e-05
2.46372e-05
0.000121488
5.08497e-05
0.00578891
0.016294
0.00258989
0.000814382
0.000731906
0.000928438
0.00130404
0.00160022
0.00174617
0.00177356
0.0017081
0.001564
0.00135489
0.001111
0.000872086
0.000672805
0.00053455
0.000478109
0.000388252
0.000305304
0.00023879
0.000187844
0.000149882
0.000124776
0.000119875
0.000110653
0.000101513
9.25976e-05
8.34307e-05
7.40335e-05
6.4865e-05
5.62909e-05
4.84652e-05
3.82269e-05
3.0069e-05
8.35145e-05
5.87818e-05
9.41806e-05
0.000159806
0.00022459
0.00849704
0.0240064
0.00578548
0.00168146
0.00124805
0.00157517
0.00209789
0.00229789
0.00232031
0.00224942
0.0021112
0.00189924
0.00161613
0.00128994
0.000967916
0.000697309
0.000505958
0.000393391
0.000321456
0.000263417
0.000212736
0.000171157
0.000139591
0.000118472
0.000108041
0.000103085
9.97094e-05
9.58116e-05
9.01882e-05
8.1845e-05
7.10393e-05
6.01031e-05
5.02778e-05
4.16827e-05
3.74318e-05
5.83983e-05
6.12125e-05
7.29055e-05
0.000298935
0.000259515
0.011517
0.0285389
0.0116717
0.00534763
0.00397568
0.00396534
0.00376496
0.00348008
0.00319839
0.00294012
0.00267199
0.00234657
0.00194789
0.00150562
0.00107916
0.000731716
0.000495957
0.000360062
0.000282776
0.000228392
0.000184179
0.000149898
0.000126113
0.0001125
0.000107779
0.000108443
0.000110978
0.000113637
0.000115187
0.000113751
0.000105269
9.29107e-05
8.08671e-05
7.08006e-05
6.84559e-05
8.12025e-05
0.000104775
0.000169281
0.000419091
0.000388034
0.0121009
0.0299199
0.0172169
0.0123056
0.00966317
0.00753709
0.00600519
0.00498469
0.00432058
0.00384766
0.00341402
0.002914
0.00232927
0.00171209
0.00114341
0.0007103
0.00044319
0.000301097
0.000228725
0.000183074
0.000149859
0.000127231
0.000114227
0.000109498
0.000111357
0.000117811
0.00012745
0.000140003
0.000155674
0.00017439
0.000194898
0.00020796
0.000219916
0.000245401
0.00029723
0.000453319
0.000833092
0.00164643
0.00554359
0.00133164
0.0111026
0.0182009
0.0146272
0.0111968
0.00879297
0.00728193
0.00637413
0.00583061
0.00543662
0.00499782
0.00437826
0.00354226
0.00260952
0.00172574
0.000986643
0.000526638
0.000321654
0.000224891
0.000173497
0.000141396
0.000120599
0.000108655
0.000103953
0.0001051
0.000110978
0.000120949
0.000135154
0.000154631
0.000181233
0.000217701
0.000267838
0.000336897
0.000432655
0.000576082
0.000787366
0.00107506
0.00140812
0.0017075
0.00193349
0.00106488
0.00376735
0.00662118
0.00844801
0.00891553
0.00889237
0.00842152
0.00743754
0.00605197
0.00446833
0.00283829
0.00170513
0.000988869
0.000561851
0.000338097
0.000230589
0.000176217
0.000145378
0.000125913
0.0001134
0.000106354
0.000103866
0.000105194
0.000109871
0.000117843
0.000129536
0.000145954
0.000168832
0.000200978
0.000246781
0.000312471
0.000405762
0.000537245
0.000715348
0.000934524
0.00116813
0.00138812
0.00123861
0.000603681
0.00371894
0.00844442
0.00846155
0.00702291
0.00609561
0.00512504
0.00405377
0.00299304
0.00204702
0.0012868
0.00078469
0.000487712
0.000324722
0.000240896
0.000198287
0.000174821
0.000159883
0.000149005
0.000140473
0.000133719
0.000129099
0.000127056
0.000127902
0.000132144
0.000140549
0.000154209
0.000174672
0.000204203
0.000246124
0.00030492
0.000386721
0.000498158
0.000642065
0.000811894
0.000991671
0.00124647
0.000661386
0.000665023
0.00267134
0.00318756
0.0035983
0.004515
0.00401428
0.00357717
0.00324712
0.0028038
0.00226934
0.00172182
0.00122323
0.000824894
0.000549732
0.000378642
0.000276229
0.000213909
0.000174387
0.000148376
0.000131136
0.000120219
0.000114208
0.000112272
0.000113496
0.000117332
0.000123749
0.000132936
0.000145299
0.000161527
0.00018278
0.000210723
0.000246369
0.000291871
0.000349801
0.00042344
0.000516016
0.000638323
0.000673463
0.000510041
0.000411516
0.000597177
)
;

boundaryField
{
    floor
    {
        Cmu             0.09;
        kappa           0.41;
        E               9.8;
        type            epsilonWallFunction;
        value           nonuniform List<scalar> 
29
(
0.000667694
4.68884e-05
8.2371e-05
0.000116671
0.000115287
0.000103764
8.9719e-05
7.38414e-05
6.00749e-05
4.91831e-05
4.07057e-05
3.40754e-05
2.88345e-05
2.4657e-05
2.12749e-05
1.84532e-05
1.59903e-05
1.37029e-05
1.25004e-05
9.71948e-06
9.71948e-06
2.31473e-05
3.73962e-05
5.08497e-05
0.000667694
4.68884e-05
5.66433e-05
0.000412732
0.00125997
)
;
    }
    ceiling
    {
        Cmu             0.09;
        kappa           0.41;
        E               9.8;
        type            epsilonWallFunction;
        value           nonuniform List<scalar> 
43
(
0.00267134
0.00318756
0.0035983
0.004515
0.00401428
0.00357717
0.00324712
0.0028038
0.00226934
0.00172182
0.00122323
0.000824894
0.000549732
0.000378642
0.000276229
0.000213909
0.000174387
0.000148376
0.000131136
0.000120219
0.000114208
0.000112272
0.000113496
0.000117332
0.000123749
0.000132936
0.000145299
0.000161527
0.00018278
0.000210723
0.000246369
0.000291871
0.000349801
0.00042344
0.000516016
0.000638323
0.000673463
0.000510041
0.000411516
0.000597177
0.0111026
0.0182009
0.00371894
)
;
    }
    sWall
    {
        Cmu             0.09;
        kappa           0.41;
        E               9.8;
        type            epsilonWallFunction;
        value           uniform 0.00267134;
    }
    nWall
    {
        Cmu             0.09;
        kappa           0.41;
        E               9.8;
        type            epsilonWallFunction;
        value           nonuniform List<scalar> 6(0.00022459 0.000259515 0.000388034 0.000603681 0.000665023 0.000597177);
    }
    sideWalls
    {
        type            empty;
    }
    glass1
    {
        Cmu             0.09;
        kappa           0.41;
        E               9.8;
        type            epsilonWallFunction;
        value           nonuniform List<scalar> 9(0.000518629 0.00131029 0.0023765 0.00382111 0.00578891 0.00849704 0.011517 0.0121009 0.0111026);
    }
    glass2
    {
        Cmu             0.09;
        kappa           0.41;
        E               9.8;
        type            epsilonWallFunction;
        value           nonuniform List<scalar> 2(0.00133164 0.00106488);
    }
    sun
    {
        Cmu             0.09;
        kappa           0.41;
        E               9.8;
        type            epsilonWallFunction;
        value           nonuniform List<scalar> 
14
(
0.000518629
0.000680679
0.000720378
0.00083228
0.000947157
0.00106531
0.00119234
0.00131815
0.00140777
0.00143987
0.00139821
0.00127929
0.00109484
0.000876181
)
;
    }
    heatsource1
    {
        Cmu             0.09;
        kappa           0.41;
        E               9.8;
        type            epsilonWallFunction;
        value           nonuniform List<scalar> 3(9.41806e-05 0.000159806 0.00022459);
    }
    heatsource2
    {
        Cmu             0.09;
        kappa           0.41;
        E               9.8;
        type            epsilonWallFunction;
        value           nonuniform List<scalar> 4(0.000723407 0.000135495 0.000135495 0.000768576);
    }
    Table_master
    {
        Cmu             0.09;
        kappa           0.41;
        E               9.8;
        type            epsilonWallFunction;
        value           nonuniform List<scalar> 9(0.000212979 0.000145777 0.00010345 7.60392e-05 5.77082e-05 4.50613e-05 3.61034e-05 2.96546e-05 2.50342e-05);
    }
    Table_slave
    {
        Cmu             0.09;
        kappa           0.41;
        E               9.8;
        type            epsilonWallFunction;
        value           nonuniform List<scalar> 9(0.000303804 0.000227494 0.000181515 0.000150833 0.000127526 0.000108542 9.21724e-05 7.69099e-05 6.15221e-05);
    }
    inlet
    {
        type            turbulentMixingLengthDissipationRateInlet;
        mixingLength    0.01;
        phi             phi;
        k               k;
        value           uniform 0.000101881;
    }
    outlet
    {
        type            zeroGradient;
    }
}


// ************************************************************************* //
