/*--------------------------------*- C++ -*----------------------------------*\
  =========                 |
  \\      /  F ield         | OpenFOAM: The Open Source CFD Toolbox
   \\    /   O peration     | Website:  https://openfoam.org
    \\  /    A nd           | Version:  6
     \\/     M anipulation  |
\*---------------------------------------------------------------------------*/
FoamFile
{
    version     2.0;
    format      ascii;
    class       volScalarField;
    location    "1400";
    object      nut;
}
// * * * * * * * * * * * * * * * * * * * * * * * * * * * * * * * * * * * * * //

dimensions      [0 2 -1 0 0 0 0];

internalField   nonuniform List<scalar> 
459
(
0.00113587
0.00124363
0.00126735
0.00132984
0.00138841
0.00144389
0.00149914
0.00155011
0.00158448
0.00159643
0.00158089
0.00153474
0.00145712
0.00135283
0.00123569
0.000509797
0.000615132
0.000690819
0.000688073
0.000664338
0.0006329
0.000593116
0.000553696
0.000517979
0.000486324
0.00045834
0.000433523
0.000411485
0.000391739
0.000373593
0.000356172
0.000338308
0.000328108
0.00030171
0.00154703
0.00386701
0.00373446
0.0043586
0.00497399
0.00558127
0.00609873
0.00650513
0.00686496
0.00714985
0.0073226
0.00734479
0.00715739
0.00660843
0.00509012
0.00126914
0.000726117
0.000542952
0.00113518
0.00157921
0.00190332
0.0020753
0.00206423
0.00164564
0.00141428
0.00124969
0.00112373
0.00102378
0.00094249
0.000872663
0.000807943
0.000745415
0.000689814
0.000640327
0.000771068
0.000402913
0.00188665
0.00528841
0.00465934
0.00583326
0.0064306
0.00687807
0.00722702
0.00752211
0.00783387
0.00814845
0.00842554
0.00861899
0.00867459
0.00850066
0.00784334
0.00593904
0.00129501
0.00105262
0.00153367
0.00197888
0.00238488
0.00266057
0.00258318
0.000844279
0.000744052
0.000663668
0.000598945
0.000546329
0.000503087
0.00046726
0.000437596
0.000413575
0.000445296
0.000513042
0.000878626
0.000472774
0.00221025
0.00673196
0.00471108
0.00617921
0.0066977
0.00689577
0.00704386
0.00722758
0.00749721
0.00783677
0.008193
0.00851055
0.00872807
0.00876912
0.0085705
0.00783134
0.00537626
0.00152698
0.00190258
0.00246778
0.00302088
0.00345785
0.00371501
0.00346092
0.000950395
0.000863038
0.000800469
0.000752557
0.000711609
0.000674384
0.000638619
0.000601224
0.000558109
0.000523902
0.00054131
0.00104339
0.00052377
0.0025385
0.00856409
0.00521945
0.00600255
0.00665152
0.00672331
0.0067118
0.00685008
0.00709587
0.00745587
0.00785953
0.00823334
0.00848776
0.00856609
0.00845923
0.00812954
0.00738031
0.00610781
0.00566476
0.00551758
0.00545881
0.00540618
0.00531367
0.00506505
0.00423063
0.00382775
0.00359086
0.00340759
0.00321775
0.00294786
0.00259558
0.00217861
0.00172497
0.00127851
0.000948226
0.00100829
0.000689991
0.000643229
0.000767202
0.00085936
0.00288492
0.0105495
0.00715301
0.00612531
0.00659226
0.00672371
0.00667792
0.00676871
0.00696117
0.00728941
0.00771748
0.00813437
0.00841205
0.00846907
0.00831175
0.00802142
0.00768935
0.00736492
0.00716957
0.00699453
0.00678027
0.00653508
0.00626892
0.00596082
0.00554962
0.00519618
0.00489295
0.00461044
0.0043293
0.00402634
0.00365036
0.00318883
0.0026463
0.00205841
0.00154975
0.00115072
0.000923645
0.000820731
0.00118474
0.000901775
0.0031927
0.0118997
0.00985825
0.00789414
0.00755491
0.00730132
0.00701844
0.00690144
0.00701853
0.00736475
0.00784988
0.00831536
0.00859746
0.00860247
0.00835781
0.00801752
0.00778571
0.0077308
0.00770417
0.00754328
0.00723912
0.00685417
0.00643249
0.00599372
0.00555473
0.00516449
0.00481957
0.00450689
0.00422368
0.00397446
0.00375792
0.00345277
0.00303029
0.0025204
0.00205014
0.00161993
0.00134948
0.00128411
0.0013117
0.00103118
0.00324577
0.0103929
0.0093819
0.00868769
0.00801446
0.0073357
0.00690964
0.00684737
0.00713868
0.00768463
0.00831321
0.00881667
0.00902651
0.00888593
0.00848821
0.0080765
0.00789809
0.00790752
0.0077723
0.00740467
0.00688802
0.00630538
0.0057197
0.00518247
0.00472724
0.00435797
0.00405572
0.00380878
0.00361693
0.00348501
0.00341662
0.00338007
0.00318512
0.00286234
0.00259864
0.00249856
0.00265435
0.00310865
0.00398226
0.00155539
0.00315394
0.00371886
0.00409825
0.00418912
0.00439849
0.00486591
0.00560847
0.00657575
0.00764163
0.00863152
0.00936006
0.00967195
0.00951906
0.00901114
0.00841575
0.00804481
0.00779566
0.00750733
0.00704552
0.00641705
0.00571441
0.00503111
0.00443859
0.0039678
0.00360924
0.00333349
0.00311378
0.00293408
0.00278458
0.00265746
0.00254617
0.00244961
0.00237831
0.00233467
0.00233409
0.00236506
0.00236317
0.00227183
0.00210997
0.0014437
0.00145255
0.00367574
0.00665611
0.00861608
0.00992288
0.0107348
0.0110895
0.011055
0.0107097
0.0101391
0.00931346
0.00845085
0.00777714
0.00729542
0.00680578
0.00620674
0.00552429
0.00483598
0.00420524
0.00367731
0.00327743
0.00298707
0.00277516
0.00261633
0.00249504
0.00240333
0.0023378
0.00229829
0.00228748
0.00230444
0.0023392
0.00238987
0.00245117
0.00250446
0.00252572
0.00251841
0.00223107
0.00119485
0.00219037
0.00674206
0.00934351
0.0100402
0.010272
0.01015
0.00970016
0.00904275
0.00829245
0.0075533
0.0068513
0.00625116
0.00574659
0.00524277
0.00470163
0.00416523
0.00367807
0.00326558
0.00293338
0.00267395
0.0024766
0.00233255
0.00223061
0.00216384
0.00212827
0.00212036
0.00213505
0.00216795
0.00222625
0.00230526
0.00240134
0.00250825
0.00261316
0.00270239
0.00277598
0.00278093
0.00192098
0.00123402
0.00196165
0.00208064
0.00216643
0.00233667
0.00224689
0.00216218
0.00209353
0.00199356
0.00185786
0.00169451
0.001512
0.00132591
0.00115815
0.0010228
0.000920736
0.000845513
0.000789856
0.000748452
0.000718263
0.000697751
0.000685924
0.000682026
0.000684497
0.000692123
0.000704518
0.000721538
0.000743245
0.000769946
0.000802333
0.000841296
0.000886285
0.000937796
0.000996135
0.00106164
0.00113396
0.00121728
0.00123922
0.00112957
0.00105158
0.00119055
)
;

boundaryField
{
    floor
    {
        type            nutkWallFunction;
        Cmu             0.09;
        kappa           0.41;
        E               9.8;
        value           nonuniform List<scalar> 
29
(
0.000148097
6.09688e-05
7.42386e-05
8.3601e-05
8.32638e-05
8.03404e-05
7.64488e-05
7.14902e-05
6.65367e-05
6.20111e-05
5.79678e-05
5.43661e-05
5.11488e-05
4.82724e-05
4.56784e-05
4.32798e-05
4.0963e-05
3.85719e-05
3.71992e-05
3.36202e-05
3.36201e-05
4.71473e-05
5.62261e-05
6.27461e-05
0.000148097
6.09687e-05
6.51784e-05
0.000126888
0.000181146
)
;
    }
    ceiling
    {
        type            nutkWallFunction;
        Cmu             0.09;
        kappa           0.41;
        E               9.8;
        value           nonuniform List<scalar> 
43
(
0.000229026
0.000241953
0.000251226
0.000269657
0.000260075
0.000250966
0.00024355
0.000232693
0.000217856
0.000199833
0.000179469
0.000158423
0.000139165
0.000123397
0.00011135
0.000102372
9.56693e-05
9.0647e-05
8.69643e-05
8.44516e-05
8.29988e-05
8.25192e-05
8.28231e-05
8.37604e-05
8.52812e-05
8.73643e-05
9.00127e-05
9.32579e-05
9.71764e-05
0.000101866
0.00010725
0.000113375
0.000120265
0.000127946
0.000136366
0.00014599
0.000148512
0.000135856
0.000126771
0.000142913
0.000356108
0.000414301
0.000253602
)
;
    }
    sWall
    {
        type            nutkWallFunction;
        Cmu             0.09;
        kappa           0.41;
        E               9.8;
        value           uniform 0.000229091;
    }
    nWall
    {
        type            nutkWallFunction;
        Cmu             0.09;
        kappa           0.41;
        E               9.8;
        value           nonuniform List<scalar> 6(0.000104033 0.000109098 0.000124386 0.000143419 0.000147927 0.000142923);
    }
    sideWalls
    {
        type            empty;
    }
    glass1
    {
        type            nutkWallFunction;
        Cmu             0.09;
        kappa           0.41;
        E               9.8;
        value           nonuniform List<scalar> 9(0.000136714 0.000183651 0.000221359 0.000256604 0.000291795 0.000328418 0.000360573 0.000366096 0.000356572);
    }
    glass2
    {
        type            nutkWallFunction;
        Cmu             0.09;
        kappa           0.41;
        E               9.8;
        value           nonuniform List<scalar> 2(0.000184429 0.000171866);
    }
    sun
    {
        type            nutkWallFunction;
        Cmu             0.09;
        kappa           0.41;
        E               9.8;
        value           nonuniform List<scalar> 
14
(
0.000136587
0.000149012
0.000151731
0.000158868
0.000165523
0.000171799
0.000178022
0.000183741
0.000187584
0.000188919
0.000187182
0.000182016
0.000173289
0.000161482
)
;
    }
    heatsource1
    {
        type            nutkWallFunction;
        Cmu             0.09;
        kappa           0.41;
        E               9.8;
        value           nonuniform List<scalar> 3(7.77308e-05 9.29251e-05 0.00010403);
    }
    heatsource2
    {
        type            nutkWallFunction;
        Cmu             0.09;
        kappa           0.41;
        E               9.8;
        value           nonuniform List<scalar> 4(0.000151927 8.79273e-05 8.79273e-05 0.000154887);
    }
    Table_master
    {
        type            nutkWallFunction;
        Cmu             0.09;
        kappa           0.41;
        E               9.8;
        value           nonuniform List<scalar> 9(0.000102223 9.01125e-05 8.02598e-05 7.22228e-05 6.56115e-05 6.01196e-05 5.55252e-05 5.16878e-05 4.85566e-05);
    }
    Table_slave
    {
        type            nutkWallFunction;
        Cmu             0.09;
        kappa           0.41;
        E               9.8;
        value           nonuniform List<scalar> 9(0.000114864 0.000104471 9.69517e-05 9.11472e-05 8.61517e-05 8.15807e-05 7.71604e-05 7.25065e-05 6.7097e-05);
    }
    inlet
    {
        type            calculated;
        value           uniform 0.000100623;
    }
    outlet
    {
        type            calculated;
        value           nonuniform List<scalar> 2(0.00196165 0.00208064);
    }
}


// ************************************************************************* //
