/*--------------------------------*- C++ -*----------------------------------*=========                 |
  \      /  F ield         | OpenFOAM: The Open Source CFD Toolbox
   \    /   O peration     | Website:  https://openfoam.org
    \  /    A nd           | Version:  6
     \/     M anipulation  |
\*---------------------------------------------------------------------------*/
FoamFile
{
    version     2.0;
    format      ascii;
    class       volScalarField;
    location    "1400";
    object      PPD;
}
// * * * * * * * * * * * * * * * * * * * * * * * * * * * * * * * * * * * * * //

dimensions      [0 0 0 0 0 0 0];

internalField   nonuniform List<scalar> 
459
(
59.16937468885418
47.436988534731796
46.04152933329121
44.8163917995129
43.99205464901848
43.51506103678087
43.3609535052978
43.550181730225134
44.072901725385215
44.93664113764556
46.27874807274101
48.16302685680718
50.68222836358633
52.80454134482411
53.01266852019552
56.42025121516941
55.7185332026261
55.48450017062189
55.58852154338724
55.69253226655172
55.84852687628584
55.978501217625954
55.72305167838019
55.689452891451616
55.73527741190963
55.811950726025124
55.88703488534785
56.0167046139067
56.19456990642687
56.44866665469133
56.94718809919215
57.19906427797014
57.38062508244549
58.028465601121454
57.12385945897253
48.562609828922476
48.13677677771821
47.011491839037554
46.351327995972994
45.97484486164843
45.83869673711849
45.95934611235297
46.21399541632178
46.642429193946136
47.438093399031374
48.68692611692341
50.51394904597151
52.38838295038916
52.41438850016531
52.38838295038916
52.23236343877735
54.33359183270767
55.25041670883204
55.0683219424641
55.1463654759944
54.964946299952665
54.74075751362013
54.64209167349001
54.67358359349199
54.734275831110274
54.751831109413835
54.76082224454003
54.799636589849925
54.82108230582249
54.87883764707201
54.98873052221521
55.402467055646554
56.16043025057468
56.44622793036221
55.92363985334061
59.39102153101793
48.71141023361276
50.07800410883698
49.52882152344878
49.41311962692442
49.38608491570426
49.453504404999165
49.516740178700886
49.304058235202234
48.946636295479486
48.76143963732345
49.0522974657499
49.994481608293256
51.63109361721627
52.284367247070485
52.38838295038916
52.4403946786653
49.623516431381375
51.92425771151297
52.63356055322588
53.1158408495209
53.62920650012156
53.99606756841669
54.18789153176874
54.59052965574103
54.88686354688268
54.9971568594321
55.056200371533535
55.08539336049484
55.0845475757881
55.011505958416315
54.75953591464596
54.84858703707995
55.826107012296745
55.27512993574582
52.58852232846864
63.48811079595616
49.00292585643208
51.588939103510604
52.12643037911165
53.06562283997026
53.925375173019546
54.6182084286583
54.414385437809095
53.07938064437761
51.13359145595137
49.48406562107211
48.61015507953214
48.71058861066346
49.79519563549967
51.484816280129294
52.46640147545513
51.81317494654542
49.617534978973055
49.5016336975718
51.00170693193633
52.38061048715076
53.51768042087051
54.51449669403457
55.23182190038263
55.48304772753037
55.40618571398047
55.40012230194115
55.447940699291046
55.527063989148935
55.70661883388431
56.038861046118136
56.68730846676545
57.86657799994038
57.484343287167746
56.68467468364135
54.20904304533013
50.14334461906818
68.14102364289229
50.1175930265978
53.03372037578525
54.59625048853501
57.195983894598655
60.10513859747715
61.504296611557145
59.215262217636855
55.42672911651453
51.64546431796818
48.93104851912658
47.437407494474684
47.20460229083917
48.047685382440534
49.59282817385883
51.073594110529626
51.50408427354626
51.357054473909315
51.80491989861229
53.1106977060023
54.694158173631884
56.15005302423121
57.36090877996254
58.028465601121454
58.49426885869597
58.85614235820083
58.96016922126599
58.97817385168391
58.8996891478348
58.802195245976954
58.77228245325263
58.80089757314765
58.851954502555174
58.08277523198865
56.624354260472956
53.259692634514394
52.87702807701222
59.88776886757021
59.126969305090014
50.244969134108004
72.63024423078843
52.44633413141631
55.92023832871666
57.50158178862766
61.19726912294295
62.702268622407644
62.41863259267496
58.19236145349106
54.02346142146164
50.158039957381135
47.25641250283001
45.75920657363133
45.6961019501268
46.879072564897136
48.848021134037836
51.032058675861585
52.76852278631584
53.97477775838852
55.28083464849677
56.78382831635731
57.66579368829107
58.44254186238922
59.06275023356989
59.5528898204121
59.96499025033981
60.29935221237326
60.556250887396615
60.710258629040624
60.78722459314452
60.73591678375968
60.556250887396615
60.27364762140261
59.88776886757021
58.667994408807104
56.77654442789001
53.26435700358791
53.17002420617035
53.8896620409368
53.80583663958526
54.458835826221794
76.81166425894526
57.620184882178414
64.06203455215211
62.64420789406156
62.47613375532984
61.20354015655359
58.43532662727878
54.609687341144266
50.372659033432555
46.68827548159221
44.29533158066496
43.57236165274545
44.427213469853
46.57019356306744
49.602895255209226
52.94198064735191
55.19839210128934
56.47220362389124
57.58803820316174
58.57184522398444
59.42398413086438
60.09364236212977
60.6332672956332
61.04359080417725
61.350838509447954
61.60653902728254
61.78533963398799
61.861919540339024
61.861919540339024
61.73426996413165
61.42758161801524
61.01796732563294
60.556250887396615
59.93925227722447
57.92081116535909
54.662176181210974
53.370305444060186
52.675012616714554
51.269828925649
56.00370834334788
82.40275140831444
74.11840814175706
72.0039222854886
66.96607991658163
63.96531428206369
59.766718896267164
54.27510771215033
48.578802610601805
43.88648382044851
41.00619802853069
40.19901656752883
41.38935562864659
44.214857806490734
48.22989465271826
53.02484722882287
55.406477566342716
57.173121589215924
58.59770020101586
59.655972539187545
60.50489283021748
61.14605500408415
61.65764107832066
62.04048967457889
62.34622197604334
62.549763468932085
62.67686020020233
62.753074456214144
62.753074456214144
62.67686020020233
62.498899489036084
62.244366523218346
61.836396199171446
61.350838509447954
60.81287422600025
60.19651809207305
59.60443587884468
58.33940540497369
57.60989664597378
54.343794631091505
49.80586613179782
89.17827246976282
84.86229992945609
78.21333364105939
69.75018076334749
59.319255325156966
47.84631970069234
38.96681985700315
33.68814785327686
31.925599019378268
33.06080429870464
36.49575377002011
41.76721807034761
48.145127038202105
52.830555700299556
55.79653165125718
58.20967964512509
59.759017316245505
60.81287422600025
61.58098319624132
62.1679384437202
62.626032399273335
62.82086560239924
62.81589220204056
62.75529763369381
62.66414619952267
62.51282129240466
62.27755292629262
61.944553386451446
61.526965035659735
61.02904891262487
60.44207144806227
59.78909793999823
59.19328885072847
58.48228577655106
57.70345196512452
56.98189788283156
56.46372508183716
56.09108650396605
55.38692192453585
53.829472424451524
98.96991829137802
67.21940574106301
31.620832827697285
8.165016226705845
5.55078241318401
12.371637530121063
23.748858542372076
35.66350536006462
43.97771890793275
50.67392665042227
54.80814915165024
57.613958211748894
58.96622018856958
59.82115176149796
60.51289522651861
60.98819869841771
61.303770303409344
61.487887481374564
61.580225757335384
61.56444860914794
61.500554289266745
61.3813265564498
61.221260551496506
61.01098985383467
60.74730289894714
60.48792088696661
60.19410359492868
59.93725076461567
59.73751644618759
59.600142233273026
59.49707166413784
59.42706436326623
59.41429089456699
59.493796164499386
59.97192390460753
61.625843252454004
67.50011565632894
59.29843664007924
92.55422809952984
25.991047254148228
5.03230009959492
11.739916385300845
21.8974985357071
30.33981958114542
37.706169884412176
43.839679872246
48.77767646095085
52.52358184340336
55.101567984237434
56.906965773811166
58.179895249647174
59.075617560451
59.71780892553951
60.14692959060986
60.44204011982394
60.6115293260775
60.719742924278655
60.78230343215215
60.838510503458
60.82905694609883
60.80391229311717
60.762106382893904
60.70510498046675
60.63831412468747
60.5735116266829
60.532768717889944
60.54509173770306
60.7100593328309
61.05026746335197
61.61465583174641
62.255531503588514
62.86470901791225
63.62299675883356
66.81175264193112
61.42146144576067
66.08070272678415
20.884540202678508
26.405822414083644
21.585828641565655
7.697024628655498
21.16093560669583
30.139314758623087
36.498081490783385
41.7718888812141
46.178362161453954
49.86342372063356
52.84827900144646
55.164974788450294
56.860982739046385
58.04536710549545
58.82391316688667
59.290225002653564
59.52879562911154
59.60486363048489
59.634273156226804
59.59206469548644
59.57985322209126
59.553108006025276
59.55708961503492
59.58356770092194
59.60461030964736
59.67545654227801
59.746607905357905
59.856124717719666
60.04963120702978
60.29646525797403
60.67709130071177
61.265979954381315
62.31304580376653
64.13068139991172
65.6966699996259
65.94536391510907
66.19355352609938
62.21618645383383
62.45251043964975
57.211923334389446
)
;

boundaryField
{
    ".*"
    {
        type            zeroGradient;
    }
}


// ************************************************************************* //
