/*--------------------------------*- C++ -*----------------------------------*\
  =========                 |
  \\      /  F ield         | OpenFOAM: The Open Source CFD Toolbox
   \\    /   O peration     | Website:  https://openfoam.org
    \\  /    A nd           | Version:  6
     \\/     M anipulation  |
\*---------------------------------------------------------------------------*/
FoamFile
{
    version     2.0;
    format      ascii;
    class       volScalarField;
    location    "2700";
    object      alphat;
}
// * * * * * * * * * * * * * * * * * * * * * * * * * * * * * * * * * * * * * //

dimensions      [1 -1 -1 0 0 0 0];

internalField   nonuniform List<scalar> 
459
(
0.00132569
0.00145315
0.00148141
0.00155468
0.00162343
0.0016887
0.00175391
0.0018134
0.00185312
0.00186624
0.00184686
0.0017913
0.00169827
0.00157283
0.00143036
0.000595846
0.000717673
0.000807227
0.000806089
0.000779122
0.000742732
0.000695956
0.000649438
0.00060729
0.000569962
0.000536991
0.000507776
0.000481833
0.000458614
0.000437298
0.000416855
0.00039592
0.000383845
0.00035283
0.00180296
0.00451821
0.00436583
0.00509541
0.00581579
0.0065252
0.00712523
0.00760053
0.00802074
0.00835239
0.00855306
0.00857949
0.0083664
0.00774561
0.00602856
0.00146932
0.000862544
0.000631778
0.00132952
0.00185645
0.00224376
0.00245185
0.00243971
0.00193629
0.00166109
0.00146594
0.00131693
0.00119889
0.00110303
0.00102119
0.000945331
0.000871941
0.000806551
0.000748608
0.000901541
0.000470212
0.00219614
0.00617566
0.00544612
0.00680584
0.00749703
0.00801503
0.0084191
0.00876625
0.00913392
0.00950456
0.00983082
0.010059
0.0101271
0.00992605
0.00915162
0.00691723
0.00150996
0.0012166
0.0017838
0.00231413
0.00280241
0.00313674
0.00304791
0.000990387
0.000872352
0.000777649
0.000701402
0.000639431
0.000588516
0.000546341
0.000511438
0.0004832
0.00052039
0.00060004
0.00102915
0.000551587
0.00256997
0.0078529
0.00550654
0.0072023
0.00779225
0.00801766
0.00819086
0.00841236
0.00873457
0.00913745
0.00955833
0.00993153
0.0101857
0.0102283
0.00999034
0.00911273
0.00617483
0.00177735
0.00221137
0.00287328
0.00353163
0.00405902
0.00437322
0.00407706
0.00111534
0.00101247
0.000938643
0.00088199
0.000833522
0.000789606
0.000747386
0.000703256
0.00065244
0.000612227
0.000633229
0.00122417
0.000611021
0.00294869
0.00998059
0.00609633
0.00700163
0.0077356
0.00781156
0.00780178
0.00797275
0.00826888
0.00869708
0.00917383
0.00961076
0.00990254
0.00998657
0.00985621
0.00946893
0.00859162
0.00713066
0.00662622
0.00646897
0.0064158
0.00636641
0.00626399
0.00597067
0.00498081
0.00450066
0.00421745
0.00399853
0.00377263
0.00345201
0.00303639
0.00254611
0.00201381
0.00149189
0.00110751
0.00118214
0.000806093
0.000749477
0.000893798
0.0010014
0.00334825
0.012286
0.00834553
0.00715352
0.00768805
0.00781007
0.00777099
0.00788041
0.00811338
0.00850774
0.00901498
0.00950113
0.00981612
0.00986983
0.00967806
0.00934339
0.00897327
0.00862102
0.00841665
0.00823073
0.00799285
0.00771173
0.00739942
0.00703282
0.00654188
0.00611936
0.00575743
0.0054209
0.00508631
0.00472472
0.00427818
0.00373268
0.00309395
0.00240469
0.00181093
0.00134778
0.0010813
0.000960067
0.00138466
0.00105134
0.00370262
0.0138472
0.0114873
0.00920878
0.0088192
0.00849578
0.00816095
0.00803227
0.0081839
0.00860358
0.00917877
0.00971935
0.0100348
0.0100227
0.00972736
0.00934152
0.00910491
0.00907979
0.00907387
0.00889916
0.0085498
0.0081005
0.00760404
0.00708395
0.00656035
0.00609307
0.00567976
0.0053052
0.00496599
0.00466742
0.00440804
0.00404522
0.00354725
0.0029488
0.00239875
0.00189766
0.001582
0.00150666
0.00153878
0.0012047
0.00376097
0.0120659
0.010903
0.0100803
0.00928908
0.00850291
0.00802408
0.00797537
0.00833913
0.00899385
0.0097326
0.0103096
0.0105329
0.0103465
0.00987635
0.00942255
0.00926558
0.00931461
0.00916858
0.00874771
0.00814893
0.00746757
0.00677617
0.00613542
0.00558768
0.00514136
0.00477569
0.00447697
0.00424475
0.00408452
0.00400012
0.00395416
0.00372593
0.0033493
0.00304329
0.00292949
0.00311514
0.00364776
0.00466296
0.00181242
0.00365052
0.00430804
0.00474893
0.00486095
0.00511768
0.00568216
0.00657028
0.00771827
0.00897377
0.0101285
0.0109626
0.0112955
0.0110847
0.0104735
0.00980274
0.00941022
0.00915792
0.00884383
0.00831752
0.0075944
0.00677634
0.00597051
0.00526215
0.00469315
0.00425737
0.00392223
0.00365606
0.0034394
0.00326019
0.00310885
0.00297729
0.00286417
0.00278112
0.0027305
0.00272963
0.00276467
0.00276043
0.0026515
0.00246105
0.00168072
0.00173868
0.00439445
0.00792368
0.0102058
0.011704
0.0126165
0.012993
0.0129175
0.0124833
0.0117968
0.010807
0.00981123
0.00906499
0.00854079
0.00799487
0.00731454
0.00653035
0.00572913
0.00498675
0.00435746
0.00387366
0.00352041
0.00326278
0.00307045
0.00292428
0.00281425
0.00273596
0.00268894
0.00267602
0.00269562
0.00273623
0.00279539
0.00286667
0.00292817
0.00295209
0.00294351
0.00260586
0.0013913
0.00262187
0.00805011
0.0110334
0.0117981
0.0120246
0.0118437
0.0112886
0.0105025
0.00962036
0.00876571
0.00795573
0.00727605
0.00670995
0.00614005
0.0055246
0.00491014
0.0043456
0.00386157
0.00346789
0.00315866
0.00292091
0.00274677
0.0026232
0.00254158
0.002497
0.00248516
0.00250012
0.00253738
0.0026046
0.00269636
0.00280833
0.00293304
0.0030553
0.00315919
0.00324462
0.00324545
0.00224127
0.00143718
0.00231796
0.00245916
0.00256065
0.00273984
0.00262385
0.00252039
0.00243673
0.00231706
0.00215641
0.00196422
0.00175062
0.00153446
0.00134172
0.00118759
0.0010719
0.000986567
0.000923059
0.000875331
0.000840082
0.000815752
0.000801356
0.0007961
0.000798544
0.000807067
0.000821211
0.000840798
0.000865901
0.000896883
0.000934561
0.000979898
0.00103232
0.00109238
0.00116045
0.00123691
0.00132133
0.00141869
0.00144383
0.00131613
0.00122438
0.00138488
)
;

boundaryField
{
    floor
    {
        type            compressible::alphatWallFunction;
        Prt             0.85;
        value           nonuniform List<scalar> 
29
(
0.000201553
8.37181e-05
0.000101757
0.000114779
0.000114615
0.000110713
0.00010542
9.85713e-05
9.17044e-05
8.54307e-05
7.98299e-05
7.48449e-05
7.03961e-05
6.64187e-05
6.28359e-05
5.95265e-05
5.63335e-05
5.30426e-05
5.11345e-05
4.61977e-05
4.6197e-05
6.46287e-05
7.70567e-05
8.59889e-05
0.00020155
8.37171e-05
8.90807e-05
0.0001724
0.000247879
)
;
    }
    ceiling
    {
        type            compressible::alphatWallFunction;
        Prt             0.85;
        value           nonuniform List<scalar> 
43
(
0.000318017
0.000336059
0.000348962
0.000371769
0.000357184
0.000344088
0.000333452
0.000318159
0.000297488
0.000272535
0.000244485
0.00021571
0.00018967
0.000168541
0.000152476
0.000140499
0.000131506
0.0001247
0.000119645
0.000116142
0.000114063
0.000113302
0.000113656
0.000114888
0.000116929
0.000119748
0.00012335
0.000127779
0.000133141
0.000139559
0.000146936
0.000155336
0.000164792
0.000175338
0.000186898
0.000200124
0.000203524
0.000186189
0.000173621
0.000195554
0.000484975
0.000564676
0.000356478
)
;
    }
    sWall
    {
        type            compressible::alphatWallFunction;
        Prt             0.85;
        value           uniform 0.000316744;
    }
    nWall
    {
        type            compressible::alphatWallFunction;
        Prt             0.85;
        value           nonuniform List<scalar> 6(0.000142239 0.000149246 0.000170536 0.000196068 0.000202275 0.000195204);
    }
    sideWalls
    {
        type            empty;
    }
    glass1
    {
        type            compressible::alphatWallFunction;
        Prt             0.85;
        value           nonuniform List<scalar> 9(0.000182596 0.000245622 0.000296304 0.000343688 0.00039102 0.000440324 0.000483596 0.000490827 0.000477667);
    }
    glass2
    {
        type            compressible::alphatWallFunction;
        Prt             0.85;
        value           nonuniform List<scalar> 2(0.000250564 0.000233323);
    }
    sun
    {
        type            compressible::alphatWallFunction;
        Prt             0.85;
        value           nonuniform List<scalar> 
14
(
0.000187366
0.000204637
0.000208446
0.000218285
0.00022747
0.00023615
0.000244786
0.000252633
0.000257857
0.000259579
0.000257033
0.000249719
0.000237416
0.000220708
)
;
    }
    heatsource1
    {
        type            compressible::alphatWallFunction;
        Prt             0.85;
        value           nonuniform List<scalar> 3(0.000106557 0.000127365 0.000142617);
    }
    heatsource2
    {
        type            compressible::alphatWallFunction;
        Prt             0.85;
        value           nonuniform List<scalar> 4(0.00020699 0.000122898 0.000122896 0.000212458);
    }
    Table_master
    {
        type            compressible::alphatWallFunction;
        Prt             0.85;
        value           nonuniform List<scalar> 9(0.000141063 0.000124298 0.000110653 9.95218e-05 9.03668e-05 8.27639e-05 7.64044e-05 7.10952e-05 6.67666e-05);
    }
    Table_slave
    {
        type            compressible::alphatWallFunction;
        Prt             0.85;
        value           nonuniform List<scalar> 9(0.000158563 0.000144176 0.000133748 0.000125679 0.000118728 0.000112388 0.000106253 9.97962e-05 9.22994e-05);
    }
    inlet
    {
        type            fixedValue;
        value           uniform 1.94e-05;
    }
    outlet
    {
        type            zeroGradient;
    }
}


// ************************************************************************* //
