/*--------------------------------*- C++ -*----------------------------------*\
  =========                 |
  \\      /  F ield         | OpenFOAM: The Open Source CFD Toolbox
   \\    /   O peration     | Website:  https://openfoam.org
    \\  /    A nd           | Version:  6
     \\/     M anipulation  |
\*---------------------------------------------------------------------------*/
FoamFile
{
    version     2.0;
    format      ascii;
    class       volScalarField;
    location    "2700";
    object      nut;
}
// * * * * * * * * * * * * * * * * * * * * * * * * * * * * * * * * * * * * * //

dimensions      [0 2 -1 0 0 0 0];

internalField   nonuniform List<scalar> 
459
(
0.00113919
0.00124757
0.00127177
0.00133465
0.00139365
0.00144966
0.00150562
0.00155666
0.00159071
0.00160192
0.00158522
0.0015375
0.00145763
0.00134997
0.00122773
0.000511658
0.000616218
0.000693091
0.000692123
0.00066898
0.000637745
0.000597592
0.000557657
0.000521474
0.000489429
0.000461124
0.000436044
0.000413773
0.00039384
0.00037554
0.00035799
0.000340017
0.000329656
0.000303045
0.00155031
0.00387961
0.00374842
0.00437484
0.00499338
0.00560246
0.00611757
0.00652547
0.00688587
0.00717005
0.00734175
0.00736397
0.00718079
0.00664789
0.00517421
0.00126109
0.000740292
0.00054253
0.00114153
0.00159391
0.00192647
0.00210518
0.0020948
0.00166257
0.00142628
0.00125872
0.00113078
0.00102943
0.000947124
0.000876853
0.000811724
0.000748714
0.000692576
0.000642837
0.000774192
0.000403847
0.00188965
0.00530384
0.00467658
0.00584432
0.00643812
0.00688316
0.00723022
0.00752811
0.00784312
0.00816028
0.00843924
0.00863419
0.00869205
0.00851934
0.00785473
0.00593706
0.00129601
0.00104452
0.00153148
0.00198685
0.00240618
0.00269336
0.00261718
0.000850423
0.000749067
0.000667748
0.000602276
0.000549063
0.000505343
0.000469129
0.000439159
0.000414912
0.000446852
0.000515255
0.000883766
0.000473736
0.00221281
0.00674596
0.00472917
0.0061858
0.00669308
0.00688727
0.00703639
0.00722639
0.00750205
0.00784635
0.008206
0.00852503
0.0087424
0.00877874
0.00857472
0.00782173
0.00530019
0.00152568
0.00189837
0.00246681
0.00303231
0.00348543
0.00375551
0.00350138
0.000957899
0.000869582
0.000806204
0.000757568
0.000715955
0.000678247
0.000641992
0.000604092
0.000560444
0.000525842
0.000543829
0.00105129
0.000524796
0.00254055
0.0085764
0.00523664
0.00601444
0.00664578
0.00671202
0.00670433
0.00685081
0.00710363
0.00746909
0.00787629
0.00824975
0.00849931
0.00857129
0.00845975
0.00812788
0.00737533
0.00612168
0.00568915
0.00555472
0.00550965
0.00546777
0.00538025
0.00512865
0.00427865
0.00386637
0.00362323
0.00343526
0.00324125
0.00296581
0.00260871
0.00218745
0.00173008
0.00128158
0.000951274
0.00101528
0.000692351
0.000643942
0.00076805
0.00086053
0.00288653
0.0105617
0.00717085
0.00614637
0.00660653
0.00671273
0.00667971
0.0067727
0.00697069
0.00730674
0.00773978
0.00815531
0.00842482
0.00847099
0.00830708
0.00802073
0.00770392
0.00740238
0.00722779
0.007069
0.00686548
0.00662469
0.00635692
0.00604237
0.00562088
0.00525808
0.00494725
0.00465819
0.00437073
0.00405998
0.00367618
0.00320732
0.00265835
0.00206596
0.00155566
0.00115766
0.000928757
0.000824743
0.00118957
0.000903337
0.00319381
0.0119111
0.00987668
0.00791697
0.00758247
0.00730526
0.00701647
0.00690347
0.00703061
0.00738786
0.00787904
0.00834145
0.0086118
0.00860209
0.00834993
0.0080202
0.00781844
0.00779812
0.00779416
0.00764506
0.00734574
0.00696035
0.00653423
0.00608764
0.00563793
0.00523652
0.00488142
0.00455957
0.00426803
0.00401136
0.00378829
0.0034763
0.00304817
0.00253371
0.00206087
0.00163018
0.00135895
0.00129427
0.00132193
0.00103504
0.00324672
0.0103946
0.00938809
0.00867746
0.00799453
0.0073148
0.00689871
0.00685227
0.00716048
0.00771919
0.00835117
0.00884589
0.00903844
0.00888043
0.00847914
0.00809169
0.00795867
0.00800222
0.00787785
0.00751704
0.0070031
0.00641798
0.00582407
0.00527355
0.00480289
0.00441934
0.00410506
0.00384828
0.00364864
0.00351083
0.00343817
0.00339848
0.00320213
0.00287824
0.00261506
0.00251707
0.00267651
0.00313433
0.00400699
0.00155826
0.00315493
0.00371953
0.00409621
0.00418853
0.00440433
0.0048836
0.00564059
0.00662101
0.0076949
0.00868436
0.00940111
0.00968976
0.00951254
0.00899155
0.00841892
0.00808425
0.00786904
0.00760017
0.00714858
0.00652759
0.00582479
0.00513235
0.00452358
0.00403453
0.00365996
0.00337186
0.00314304
0.00295677
0.00280268
0.00267254
0.00255943
0.00246218
0.00239081
0.00234736
0.00234675
0.00237709
0.00237376
0.00228039
0.00211679
0.00144596
0.00144858
0.00368494
0.00668858
0.00865746
0.00996375
0.0107692
0.011113
0.0110652
0.0107054
0.0101253
0.00928049
0.00842837
0.00778932
0.00734019
0.00687184
0.00628761
0.00561388
0.00492535
0.00428726
0.00374634
0.00333045
0.00302676
0.00280528
0.00263992
0.00251425
0.00241965
0.00235234
0.00231191
0.00230082
0.00231769
0.00235264
0.00240358
0.002465
0.00251807
0.00253887
0.00253169
0.00224143
0.00119693
0.00219331
0.00679014
0.00937492
0.0100618
0.010279
0.0101408
0.00967695
0.0090111
0.00825975
0.00752967
0.00683612
0.00625346
0.00576779
0.00527846
0.0047497
0.00422164
0.0037364
0.0033203
0.00298185
0.00271599
0.00251157
0.00236185
0.0022556
0.00218543
0.0021471
0.00213692
0.00214978
0.00218184
0.00223964
0.00231857
0.00241488
0.00252218
0.0026274
0.00271687
0.0027905
0.00279139
0.00192786
0.00123632
0.00196359
0.00208267
0.00216857
0.00233832
0.00224622
0.00216049
0.00209046
0.00198901
0.00185199
0.00168757
0.00150449
0.001319
0.0011535
0.0010211
0.000921689
0.000848355
0.00079377
0.000752744
0.000722442
0.000701524
0.000689147
0.000684628
0.000686729
0.000694058
0.00070622
0.000723062
0.000744647
0.000771288
0.000803688
0.000842674
0.000887751
0.000939403
0.000997944
0.0010637
0.00113633
0.00122009
0.00124175
0.00113196
0.00105326
0.00119174
)
;

boundaryField
{
    floor
    {
        type            nutkWallFunction;
        Cmu             0.09;
        kappa           0.41;
        E               9.8;
        value           nonuniform List<scalar> 
29
(
0.000147183
6.12061e-05
7.43741e-05
8.38802e-05
8.37615e-05
8.09133e-05
7.70503e-05
7.20502e-05
6.70366e-05
6.24559e-05
5.83661e-05
5.47259e-05
5.1477e-05
4.85722e-05
4.59554e-05
4.35381e-05
4.12057e-05
3.88017e-05
3.74081e-05
3.38023e-05
3.38022e-05
4.72702e-05
5.635e-05
6.28767e-05
0.000147183
6.1206e-05
6.51252e-05
0.000125941
0.000181
)
;
    }
    ceiling
    {
        type            nutkWallFunction;
        Cmu             0.09;
        kappa           0.41;
        E               9.8;
        value           nonuniform List<scalar> 
43
(
0.000229237
0.000242173
0.000251458
0.000269835
0.000260004
0.000250784
0.000243218
0.000232198
0.000217211
0.000199064
0.000178626
0.000157635
0.000138627
0.000123198
0.000111463
0.000102713
9.61421e-05
9.11688e-05
8.74748e-05
8.49141e-05
8.33947e-05
8.2839e-05
8.30973e-05
8.39978e-05
8.54896e-05
8.75504e-05
9.01834e-05
9.34205e-05
9.73398e-05
0.000102031
0.000107424
0.000113565
0.000120478
0.000128187
0.00013664
0.000146312
0.000148802
0.000136133
0.000126968
0.00014305
0.00035621
0.000414368
0.000253918
)
;
    }
    sWall
    {
        type            nutkWallFunction;
        Cmu             0.09;
        kappa           0.41;
        E               9.8;
        value           uniform 0.000229302;
    }
    nWall
    {
        type            nutkWallFunction;
        Cmu             0.09;
        kappa           0.41;
        E               9.8;
        value           nonuniform List<scalar> 6(0.000104173 0.000109284 0.000124839 0.000143658 0.000148191 0.000143061);
    }
    sideWalls
    {
        type            empty;
    }
    glass1
    {
        type            nutkWallFunction;
        Cmu             0.09;
        kappa           0.41;
        E               9.8;
        value           nonuniform List<scalar> 9(0.0001371 0.000184019 0.000221689 0.000256879 0.000292012 0.000328586 0.000360688 0.000366193 0.000356675);
    }
    glass2
    {
        type            nutkWallFunction;
        Cmu             0.09;
        kappa           0.41;
        E               9.8;
        value           nonuniform List<scalar> 2(0.00018475 0.00017212);
    }
    sun
    {
        type            nutkWallFunction;
        Cmu             0.09;
        kappa           0.41;
        E               9.8;
        value           nonuniform List<scalar> 
14
(
0.000136972
0.000149464
0.000152237
0.000159416
0.000166117
0.00017245
0.000178749
0.000184472
0.000188279
0.00018953
0.000187666
0.000182325
0.000173346
0.000161156
)
;
    }
    heatsource1
    {
        type            nutkWallFunction;
        Cmu             0.09;
        kappa           0.41;
        E               9.8;
        value           nonuniform List<scalar> 3(7.78191e-05 9.3028e-05 0.00010417);
    }
    heatsource2
    {
        type            nutkWallFunction;
        Cmu             0.09;
        kappa           0.41;
        E               9.8;
        value           nonuniform List<scalar> 4(0.000151005 8.9656e-05 8.9656e-05 0.000155001);
    }
    Table_master
    {
        type            nutkWallFunction;
        Cmu             0.09;
        kappa           0.41;
        E               9.8;
        value           nonuniform List<scalar> 9(0.00010296 9.0723e-05 8.07634e-05 7.26391e-05 6.5957e-05 6.04078e-05 5.57661e-05 5.18911e-05 4.87318e-05);
    }
    Table_slave
    {
        type            nutkWallFunction;
        Cmu             0.09;
        kappa           0.41;
        E               9.8;
        value           nonuniform List<scalar> 9(0.000115752 0.000105254 9.76437e-05 9.17563e-05 8.66836e-05 8.20565e-05 7.75786e-05 7.28648e-05 6.73913e-05);
    }
    inlet
    {
        type            calculated;
        value           uniform 0.000100623;
    }
    outlet
    {
        type            calculated;
        value           nonuniform List<scalar> 2(0.00196359 0.00208267);
    }
}


// ************************************************************************* //
