/*--------------------------------*- C++ -*----------------------------------*=========                 |
  \      /  F ield         | OpenFOAM: The Open Source CFD Toolbox
   \    /   O peration     | Website:  https://openfoam.org
    \  /    A nd           | Version:  6
     \/     M anipulation  |
\*---------------------------------------------------------------------------*/
FoamFile
{
    version     2.0;
    format      ascii;
    class       volScalarField;
    location    "700";
    object      PPD;
}
// * * * * * * * * * * * * * * * * * * * * * * * * * * * * * * * * * * * * * //

dimensions      [0 0 0 0 0 0 0];

internalField   nonuniform List<scalar> 
459
(
62.848170502783624
51.394771772207676
49.938180916335504
48.678790809993124
47.83398601704384
47.294252572782156
47.06067258433878
47.18273545893652
47.58904059956089
48.36705642005791
49.56773422622678
51.278218308403964
53.58529138745878
56.212427418179594
56.42040153693183
60.09599594666599
59.29689778754134
58.96113810027015
59.064487309957435
59.193625979252886
59.34852040872364
59.11733566867544
58.94008948527338
58.94170938537961
59.011717148124085
59.10996680648841
59.23158925003965
59.38255540681162
59.581837397857214
59.881629069126575
60.39568005615803
61.046510115944656
61.27712372461837
61.890858940273425
61.14401148957765
52.58509128685805
52.05345569834616
50.885250411232356
50.1875035079324
49.727710878885695
49.544988514226574
49.57559693857269
49.72189434489859
50.02434579677917
50.67814367945221
51.76603179164179
53.42548893419223
55.46994258805998
55.692245324495026
55.822320792949704
56.26442671237721
58.341641332424466
58.67675836299218
58.41802527908038
58.28640839476662
57.969511837340825
57.76757757858355
57.731466459938574
57.816921005490336
57.9010948432584
57.99429750262881
58.055242973567516
58.12063590055768
58.19329660627965
58.30229784427264
58.461442368997325
58.885927160268146
59.922170873399004
60.37897235340523
60.08318383681538
63.50063289972348
52.81611824103005
53.976662719282515
53.420156338675554
53.24837652068076
53.148407537994366
53.15048850280843
53.13831954969767
52.84104448908189
52.36104602537388
52.040004250794404
52.17465040651407
52.92562194793886
54.341734783978445
55.327944073949595
55.53613149815635
55.79630718112596
52.883376731266
54.87718569678124
55.562007952074154
56.06731509298902
56.56794800557136
56.96396801592403
57.22373738794255
57.67576100718519
58.000662081060504
58.18139066378367
58.29399250411972
58.3783611412303
58.40682500445124
58.412588827210435
58.212607686990964
58.32708473780704
59.24067332194808
58.97071256328759
56.89148956972133
67.48733606217519
53.200119550711044
55.50051935210164
55.97906908699678
56.87795482674355
57.693099923190516
58.28106235164409
58.07132984918015
56.64776254509132
54.609403986825036
52.77496069304243
51.68366136050227
51.56276640578102
52.42306287349838
53.9709395838111
55.35396956711833
54.58951972782335
52.4774481820242
52.27627792776622
53.74212367947891
55.143843931662374
56.278499517498986
57.22787013417822
57.93255909691921
58.14394536160445
58.1157725667914
58.13703085424571
58.20582335531074
58.3269235939211
58.519319661166335
58.89502561524738
59.50501433072147
60.65317895806248
60.46701399788437
59.82354132123824
57.830385291508655
54.58671344825969
72.00862174458348
54.3988051810616
56.996234526796094
58.457324961931974
60.89401850721277
63.67969544083381
64.92781821670594
62.78743498211735
58.907104178220536
55.02964328185136
52.12378494066751
50.38188219580671
49.883873349401334
50.527013852395385
51.896376877390885
53.3062847150527
53.82986193023871
53.77679464978334
54.25301714352938
55.601708600054806
57.19400011003554
58.657406499297515
59.84153884796549
60.695934447562884
61.197690268022804
61.3410956379905
61.41037114637532
61.426965361717045
61.39940613254078
61.33234330149978
61.34543604687401
61.426262953913756
61.54496973655911
60.95031024312766
59.69369982428154
56.79538951888703
56.64644603183172
63.315202089942254
62.4831574806712
54.19300003096215
76.22826003800692
56.76123990089866
59.8793979625422
61.29862978478493
64.85262750410685
66.19946879121377
65.66818332983875
61.54370808767434
57.31253441605835
53.316255084888674
50.1947912461535
48.45281186632505
48.16251635284482
49.10931181743557
50.909296596652354
52.9911518891072
54.74265534378685
56.010919970836376
57.39412071891771
59.09772963282882
60.37897235340523
61.17465894140103
61.81424366343346
62.273480681146324
62.65531777969002
62.93481175570915
63.16315006208479
63.28986985077508
63.34053039772614
63.28986985077508
63.112435004885306
62.88402817028974
62.55357334460327
61.45184559306727
59.76616676297391
56.65933854871924
56.63044496512304
57.54716060994102
57.52925227360277
58.07181463628452
80.13712237943413
61.88147674098757
67.68510936912065
66.31679741277406
66.02244025693864
64.68255940751382
61.84850377316494
57.85534623054865
53.42537691822442
49.51717276665671
46.87400858977198
45.89911152569978
46.55764881628589
48.52023986237203
51.37094564430419
54.58910524293212
57.51107465133456
58.85775562707413
60.09599594666599
61.17465894140103
62.06951106434319
62.757003812939416
63.28986985077508
63.66943573553409
63.94720234161705
64.14889599503793
64.27481557005672
64.32515309550482
64.29998650809875
64.14889599503793
63.871497617483826
63.51771756723275
63.13779446137657
62.62988711898817
60.76590797922584
57.8200313610181
56.73369965284329
56.243782151593344
54.960338422291365
59.415609477234554
85.20170682267768
77.36976506173552
75.3013844894569
70.64563670799869
67.58498272547311
63.17773176613955
57.39496918199121
51.40145712129165
46.41349539695182
43.257523719356335
42.245659754199096
43.269210866124126
45.945533799340936
49.803672537240146
54.39603172621732
57.51107465133456
59.40013405794544
60.94393762976158
62.17152342360094
63.08707170342433
63.74523985424282
64.24964029207965
64.60169535603002
64.85262750410685
65.02800780735357
65.12812283987572
65.17815218448911
65.15313986866158
65.07807468586265
64.92781821670594
64.65191795798961
64.27481557005672
63.871497617483826
63.41649162487422
62.93481175570915
62.477227109565455
61.05018879707294
60.31822991896841
57.34021867282569
53.56520105032419
91.17243155557144
87.31766512096176
81.22287738825528
73.02713495429396
62.045389057378074
50.02846514369614
40.710505158427715
35.23754846933912
33.38251108747039
34.49205259140328
37.935605733213094
43.20304365859514
49.48853048544546
54.72922553920977
57.71855303637602
60.353260408965674
62.06951106434319
63.23919362147629
64.07329272787356
64.70212255905807
65.14402161396585
65.13528598292089
65.11970533484131
65.07701735814777
64.98309832914956
64.85988857699743
64.66131197492336
64.3734067570467
64.03182823674305
63.58825757357723
63.08211383914213
62.56259611588562
62.047016883921685
61.43960821121708
60.759957887587504
60.1723648916781
59.72253408266601
59.37564075746342
58.678383261214506
57.19216185483165
100.0
71.23171325686135
33.62824945768888
8.45818055420284
5.5462322035337195
12.633003794605287
24.324023724873683
36.76402392331002
45.31543357730052
52.20399101474326
56.65429477905943
59.65806466236311
61.108497956683486
62.02015431541087
62.7451335643948
63.242345710788726
63.567340907584025
63.7459477189507
63.83965232326127
63.82863076304701
63.771719414098975
63.66296877441225
63.51773321276524
63.354377114227965
63.14575005950387
62.922276527869506
62.72065050224787
62.50314328364144
62.3684645982617
62.26000462846173
62.21498087386309
62.234966624154865
62.27062464005779
62.425208475497556
62.92241613928243
64.44177142188539
69.42172076797544
62.31188626025077
93.81876359498632
28.046739591836797
5.0094955146351765
11.783159946519035
22.562468875998434
31.496510758156802
39.25050254326826
45.60497329298518
50.668633892426136
54.562822620710534
57.26791719333724
59.14785662951138
60.474305942610215
61.436058748849376
62.07924564715277
62.51657757168711
62.82373635308153
63.030803774645484
63.14526868680126
63.228271503143986
63.24540036000091
63.26907490252615
63.24808395519731
63.21135581908164
63.13777556933145
63.087855187058864
63.0485708663141
63.0406779006567
63.09023592103812
63.26216851628693
63.626485435837075
64.18709571832005
64.87567953805592
65.52323376115424
66.31842510651495
69.42517282021177
64.30938604762758
68.62420093509262
20.145045459858864
25.769266237758373
20.974731951341667
8.225621180459612
22.42765437537092
31.77045509090263
38.4068549418829
43.882271427176455
48.41980716814218
52.1479917909452
55.15928471890219
57.47961372247203
59.202667764593414
60.416729681112194
61.228766862249415
61.75455124722252
62.09470679677103
62.27948976808161
62.41694811188372
62.50115499641533
62.570120698109704
62.626425726949556
62.69491806877575
62.76146541928721
62.82698979671216
62.867952917734264
62.94387213782141
63.01364248704305
63.14816735485937
63.317435258164345
63.61445893077049
64.13268098728321
65.01739252338493
66.56607108830491
68.31274091306688
68.53142695337128
68.79803476524029
65.45123605435042
65.51124479796269
60.185027023883244
)
;

boundaryField
{
    ".*"
    {
        type            zeroGradient;
    }
}


// ************************************************************************* //
