/*--------------------------------*- C++ -*----------------------------------*\
  =========                 |
  \\      /  F ield         | OpenFOAM: The Open Source CFD Toolbox
   \\    /   O peration     | Website:  https://openfoam.org
    \\  /    A nd           | Version:  6
     \\/     M anipulation  |
\*---------------------------------------------------------------------------*/
FoamFile
{
    version     2.0;
    format      ascii;
    class       volScalarField;
    location    "500";
    object      nut;
}
// * * * * * * * * * * * * * * * * * * * * * * * * * * * * * * * * * * * * * //

dimensions      [0 2 -1 0 0 0 0];

internalField   nonuniform List<scalar> 
459
(
0.00117278
0.00128888
0.00132066
0.00138778
0.00145107
0.00151216
0.00157496
0.00162624
0.00165682
0.00166064
0.00163364
0.00157265
0.00147361
0.00132782
0.00114105
0.00053522
0.000638375
0.000728514
0.000745336
0.00072668
0.000696486
0.000651972
0.000606492
0.000565359
0.000529169
0.000497405
0.000469425
0.00044454
0.000422426
0.000402217
0.000382897
0.000363063
0.00034777
0.000316283
0.00157436
0.00399938
0.00390498
0.00456419
0.0052256
0.00585925
0.00634846
0.00676632
0.00712506
0.00739288
0.00754303
0.00754978
0.00737356
0.00691708
0.00566478
0.00126322
0.000857945
0.000548076
0.00122944
0.00176748
0.00217392
0.00240817
0.00239879
0.00183484
0.00155187
0.00135656
0.00121024
0.00109616
0.00100475
0.000930574
0.000860797
0.000791305
0.000728003
0.00067352
0.000781373
0.000403388
0.0019039
0.00545259
0.00489382
0.00600012
0.00657632
0.00700983
0.00733834
0.00765729
0.00799528
0.00832597
0.00861414
0.00881936
0.0088777
0.00869989
0.00802653
0.00601716
0.00133336
0.000997741
0.00155253
0.00211456
0.00265193
0.00302992
0.00295769
0.000924802
0.000810977
0.000719009
0.000644815
0.000584545
0.000535128
0.00049428
0.000460687
0.000433802
0.000467525
0.000540674
0.000887002
0.000464288
0.00221647
0.00686074
0.00496417
0.00631054
0.00672895
0.00690177
0.00705076
0.0072845
0.00760599
0.0079802
0.00836423
0.00870082
0.00889705
0.00892403
0.00871891
0.00789043
0.00483149
0.00155242
0.00189824
0.00250138
0.00317806
0.00376785
0.00414191
0.00389322
0.00104331
0.000943589
0.000869481
0.000810667
0.000760888
0.000716744
0.000674446
0.000630939
0.000582041
0.000541849
0.000558358
0.00102619
0.000511655
0.00253419
0.00865163
0.00545388
0.00618953
0.00665328
0.00667627
0.00671419
0.00690336
0.0072158
0.00761629
0.0080455
0.00840825
0.00862377
0.00866691
0.00855763
0.00824777
0.00747856
0.00638499
0.00603261
0.00598852
0.006038
0.00606382
0.00599857
0.00571498
0.00473674
0.00422632
0.00390981
0.00366251
0.00339643
0.00306959
0.00267872
0.00223282
0.00175328
0.00128454
0.000952362
0.0010159
0.000663691
0.000623
0.000747422
0.000836511
0.0028716
0.0106191
0.00738227
0.00642434
0.00677306
0.00672679
0.00673317
0.0068292
0.00707787
0.00748279
0.00795045
0.00834178
0.00854188
0.00852014
0.00834717
0.00814224
0.00797728
0.00786475
0.00784604
0.00780325
0.00767022
0.00744821
0.0071539
0.00678243
0.00628218
0.00584247
0.00546473
0.00511377
0.00475688
0.00434775
0.00387561
0.00333036
0.00271757
0.00207794
0.00154885
0.00117634
0.000901841
0.000787433
0.00113339
0.000875051
0.00316992
0.0119466
0.0100795
0.00822218
0.0077563
0.00729969
0.00697549
0.00692031
0.00715907
0.00762367
0.00815842
0.00857551
0.00873804
0.00862682
0.00836863
0.0081873
0.00825123
0.0084792
0.00862768
0.00856232
0.00829858
0.00790861
0.00745067
0.00695513
0.00643947
0.00596254
0.00553127
0.00513306
0.00476256
0.00442105
0.00408408
0.00366348
0.00315176
0.00258097
0.00207662
0.00163766
0.0013334
0.00123644
0.00123554
0.000983486
0.00322122
0.0103142
0.00939494
0.00850022
0.00767216
0.00702804
0.00675785
0.00690654
0.00740485
0.00808849
0.00873004
0.00911829
0.00914772
0.00886743
0.00850936
0.00838166
0.00857706
0.00880395
0.00876788
0.00847251
0.00799248
0.00740363
0.00676667
0.00613467
0.0055577
0.0050646
0.00464694
0.00429281
0.00400242
0.00378336
0.00363737
0.00350853
0.00321879
0.00284749
0.00254956
0.00240773
0.00248277
0.00283694
0.00366472
0.00150832
0.003132
0.0036873
0.00402183
0.00413281
0.00442692
0.00505328
0.00598835
0.00712756
0.00829116
0.00925393
0.00980464
0.00984046
0.00944255
0.00886129
0.00854424
0.00844544
0.00841594
0.00826315
0.00790242
0.00735672
0.00667934
0.00594115
0.00522508
0.00459943
0.00409375
0.0036951
0.00337444
0.00310986
0.00288758
0.00269689
0.00252863
0.00239131
0.00228833
0.00222217
0.00220759
0.00223394
0.00224034
0.00217099
0.0020294
0.0014024
0.0013412
0.00373534
0.00702221
0.00910798
0.0104263
0.0111707
0.0113966
0.0111732
0.0106211
0.00975311
0.0088156
0.0080957
0.0077201
0.00747276
0.00714999
0.00667952
0.00606625
0.00535932
0.00463777
0.00398243
0.00344505
0.0030381
0.00274581
0.00253696
0.00238606
0.00227738
0.00220236
0.00215733
0.0021438
0.00215206
0.00217764
0.00222006
0.00227449
0.00232251
0.00233734
0.00230878
0.00205459
0.00114315
0.00217309
0.00735764
0.00975574
0.0103685
0.0104482
0.010139
0.00950813
0.00869991
0.00786159
0.0070587
0.00639535
0.00592443
0.00555899
0.00515769
0.00467402
0.00412546
0.00355829
0.00303492
0.00260848
0.00229829
0.00209188
0.00196406
0.00188744
0.00184827
0.00183987
0.00185521
0.00188985
0.00194394
0.00201312
0.00209591
0.00219107
0.00229478
0.00239567
0.0024768
0.00253585
0.00257348
0.00178972
0.00117647
0.00195327
0.00207467
0.00216191
0.00233693
0.00222728
0.00213596
0.00204932
0.00192581
0.00176578
0.00158003
0.00138218
0.00119613
0.00104201
0.000923902
0.0008353
0.000767675
0.000715081
0.000674668
0.000645725
0.000627977
0.000620355
0.000621063
0.000628304
0.000640753
0.000657653
0.000678539
0.000703186
0.000731907
0.000765149
0.000803045
0.000846031
0.00089456
0.000949212
0.00101059
0.00107874
0.00115557
0.00118015
0.00106794
0.00100192
0.00115341
)
;

boundaryField
{
    floor
    {
        type            nutkWallFunction;
        Cmu             0.09;
        kappa           0.41;
        E               9.8;
        value           nonuniform List<scalar> 
29
(
0.000137192
6.41975e-05
7.71262e-05
8.82155e-05
9.02652e-05
8.79902e-05
8.42935e-05
7.88086e-05
7.31579e-05
6.80028e-05
6.34291e-05
5.93829e-05
5.57921e-05
5.25759e-05
4.96988e-05
4.70527e-05
4.45071e-05
4.18767e-05
3.98358e-05
3.5596e-05
3.5596e-05
4.72061e-05
5.51297e-05
6.12018e-05
0.000137192
6.41975e-05
6.5825e-05
0.000120456
0.000184
)
;
    }
    ceiling
    {
        type            nutkWallFunction;
        Cmu             0.09;
        kappa           0.41;
        E               9.8;
        value           nonuniform List<scalar> 
43
(
0.000228124
0.000241319
0.000250752
0.000269705
0.000257983
0.000248148
0.000238768
0.000225311
0.00020773
0.000187099
0.000164827
0.000143556
0.000125651
0.000111725
0.000101143
9.2979e-05
8.65707e-05
8.16091e-05
7.8034e-05
7.58324e-05
7.4885e-05
7.49735e-05
7.58743e-05
7.74197e-05
7.95118e-05
8.20884e-05
8.51167e-05
8.86296e-05
9.26752e-05
9.72618e-05
0.000102434
0.000108236
0.000114727
0.000121966
0.000129944
0.000138871
0.000141713
0.000128684
0.000120947
0.000138624
0.000353829
0.000411077
0.000251731
)
;
    }
    sWall
    {
        type            nutkWallFunction;
        Cmu             0.09;
        kappa           0.41;
        E               9.8;
        value           uniform 0.000228188;
    }
    nWall
    {
        type            nutkWallFunction;
        Cmu             0.09;
        kappa           0.41;
        E               9.8;
        value           nonuniform List<scalar> 6(0.000101293 0.00010591 0.000118779 0.000137444 0.000141298 0.000138633);
    }
    sideWalls
    {
        type            empty;
    }
    glass1
    {
        type            nutkWallFunction;
        Cmu             0.09;
        kappa           0.41;
        E               9.8;
        value           nonuniform List<scalar> 9(0.000140996 0.000186716 0.000223253 0.000257275 0.000291336 0.000327019 0.000358207 0.00036355 0.00035429);
    }
    glass2
    {
        type            nutkWallFunction;
        Cmu             0.09;
        kappa           0.41;
        E               9.8;
        value           nonuniform List<scalar> 2(0.000179147 0.000167192);
    }
    sun
    {
        type            nutkWallFunction;
        Cmu             0.09;
        kappa           0.41;
        E               9.8;
        value           nonuniform List<scalar> 
14
(
0.000140858
0.000154194
0.000157821
0.00016545
0.000172607
0.000179483
0.000186519
0.000192242
0.000195645
0.00019607
0.000193065
0.000186261
0.000175149
0.00015864
)
;
    }
    heatsource1
    {
        type            nutkWallFunction;
        Cmu             0.09;
        kappa           0.41;
        E               9.8;
        value           nonuniform List<scalar> 3(7.52178e-05 9.05209e-05 0.000101291);
    }
    heatsource2
    {
        type            nutkWallFunction;
        Cmu             0.09;
        kappa           0.41;
        E               9.8;
        value           nonuniform List<scalar> 4(0.000151252 0.000103856 0.000103856 0.000159262);
    }
    Table_master
    {
        type            nutkWallFunction;
        Cmu             0.09;
        kappa           0.41;
        E               9.8;
        value           nonuniform List<scalar> 9(0.000111828 9.8216e-05 8.70543e-05 7.79259e-05 7.04176e-05 6.41911e-05 5.89907e-05 5.46741e-05 5.1191e-05);
    }
    Table_slave
    {
        type            nutkWallFunction;
        Cmu             0.09;
        kappa           0.41;
        E               9.8;
        value           nonuniform List<scalar> 9(0.000125795 0.000114055 0.000105238 9.81787e-05 9.21564e-05 8.67769e-05 8.15852e-05 7.62041e-05 7.01025e-05);
    }
    inlet
    {
        type            calculated;
        value           uniform 0.000100623;
    }
    outlet
    {
        type            calculated;
        value           nonuniform List<scalar> 2(0.00195327 0.00207467);
    }
}


// ************************************************************************* //
