// -*- C++ -*-
// File generated by PyFoam - sorry for the ugliness

FoamFile
{
 version 2.0;
 format ascii;
 class volScalarField;
 location "1300";
 object T;
}

dimensions [ 0 0 0 1 0 0 0 ];

internalField nonuniform List<scalar> 459
(
  302.717
  302.437
  302.422
  302.417
  302.413
  302.408
  302.402
  302.396
  302.387
  302.376
  302.366
  302.358
  302.354
  302.356
  302.365
  302.506
  302.478
  302.467
  302.471
  302.476
  302.482
  302.488
  302.494
  302.5
  302.505
  302.511
  302.516
  302.522
  302.527
  302.532
  302.538
  302.544
  302.552
  302.577
  302.901
  302.479
  302.45
  302.45
  302.451
  302.449
  302.445
  302.436
  302.418
  302.395
  302.371
  302.351
  302.339
  302.336
  302.339
  302.34
  302.346
  302.509
  302.456
  302.448
  302.452
  302.459
  302.465
  302.469
  302.472
  302.475
  302.478
  302.48
  302.482
  302.485
  302.488
  302.492
  302.497
  302.505
  302.518
  302.558
  303.095
  302.532
  302.485
  302.492
  302.503
  302.511
  302.512
  302.501
  302.472
  302.43
  302.387
  302.353
  302.333
  302.327
  302.33
  302.336
  302.342
  302.429
  302.426
  302.435
  302.449
  302.464
  302.475
  302.476
  302.477
  302.478
  302.479
  302.48
  302.481
  302.482
  302.483
  302.485
  302.489
  302.495
  302.507
  302.55
  303.291
  302.599
  302.524
  302.536
  302.562
  302.586
  302.599
  302.585
  302.538
  302.47
  302.404
  302.353
  302.325
  302.318
  302.325
  302.336
  302.347
  302.363
  302.384
  302.412
  302.441
  302.468
  302.491
  302.509
  302.523
  302.535
  302.546
  302.556
  302.563
  302.569
  302.574
  302.578
  302.579
  302.549
  302.525
  302.516
  302.552
  303.482
  302.686
  302.572
  302.58
  302.618
  302.661
  302.691
  302.669
  302.596
  302.497
  302.41
  302.347
  302.314
  302.308
  302.321
  302.341
  302.363
  302.389
  302.418
  302.451
  302.485
  302.516
  302.542
  302.562
  302.581
  302.595
  302.607
  302.616
  302.621
  302.623
  302.622
  302.617
  302.609
  302.586
  302.554
  302.531
  302.548
  302.644
  302.689
  302.696
  303.655
  302.8
  302.658
  302.646
  302.686
  302.745
  302.766
  302.715
  302.615
  302.498
  302.395
  302.325
  302.293
  302.295
  302.32
  302.355
  302.392
  302.43
  302.469
  302.508
  302.544
  302.576
  302.601
  302.621
  302.637
  302.65
  302.659
  302.665
  302.668
  302.665
  302.659
  302.649
  302.635
  302.612
  302.581
  302.551
  302.55
  302.591
  302.61
  302.651
  303.817
  302.98
  302.844
  302.819
  302.835
  302.867
  302.823
  302.715
  302.575
  302.437
  302.331
  302.272
  302.259
  302.283
  302.33
  302.387
  302.442
  302.493
  302.539
  302.579
  302.613
  302.641
  302.662
  302.678
  302.69
  302.699
  302.705
  302.707
  302.706
  302.7
  302.689
  302.675
  302.658
  302.636
  302.607
  302.578
  302.566
  302.578
  302.591
  302.625
  304.05
  303.428
  303.28
  303.201
  303.129
  302.992
  302.804
  302.598
  302.412
  302.275
  302.201
  302.188
  302.222
  302.287
  302.369
  302.451
  302.521
  302.577
  302.621
  302.655
  302.681
  302.702
  302.716
  302.727
  302.734
  302.738
  302.74
  302.739
  302.735
  302.728
  302.718
  302.702
  302.686
  302.666
  302.645
  302.623
  302.618
  302.637
  302.664
  302.816
  304.385
  304.09
  303.793
  303.478
  303.09
  302.676
  302.335
  302.101
  301.981
  301.96
  302.014
  302.116
  302.233
  302.352
  302.469
  302.563
  302.624
  302.665
  302.696
  302.72
  302.738
  302.751
  302.76
  302.765
  302.768
  302.769
  302.768
  302.765
  302.762
  302.758
  302.756
  302.756
  302.759
  302.768
  302.787
  302.817
  302.859
  302.9
  302.925
  302.988
  293.337
  295.204
  297.215
  298.708
  299.788
  300.598
  301.212
  301.672
  302.014
  302.277
  302.434
  302.542
  302.621
  302.676
  302.713
  302.739
  302.758
  302.771
  302.781
  302.788
  302.792
  302.795
  302.796
  302.797
  302.797
  302.797
  302.798
  302.799
  302.8
  302.803
  302.809
  302.82
  302.838
  302.862
  302.892
  302.921
  302.942
  302.964
  294.528
  296.99
  299.199
  300.323
  301.035
  301.533
  301.892
  302.162
  302.366
  302.515
  302.613
  302.68
  302.725
  302.756
  302.776
  302.791
  302.801
  302.808
  302.812
  302.815
  302.817
  302.819
  302.82
  302.82
  302.821
  302.822
  302.823
  302.824
  302.826
  302.829
  302.833
  302.841
  302.853
  302.87
  302.891
  302.914
  302.912
  302.945
  298.308
  298.232
  298.226
  300.556
  301.481
  301.878
  302.123
  302.309
  302.454
  302.567
  302.654
  302.718
  302.762
  302.792
  302.812
  302.826
  302.835
  302.841
  302.845
  302.847
  302.848
  302.848
  302.848
  302.848
  302.848
  302.847
  302.847
  302.847
  302.846
  302.846
  302.846
  302.847
  302.849
  302.852
  302.858
  302.87
  302.882
  302.89
  302.893
  302.933
)
;

boundaryField
{
  floor
  {
    type wallHeatTransfer;
    Tinf uniform 305.2;
    alphaWall uniform 0.24;
    value nonuniform List<scalar> 29
(
  302.635
  302.987
  302.905
  302.861
  302.865
  302.879
  302.898
  302.922
  302.947
  302.973
  302.998
  303.022
  303.045
  303.067
  303.089
  303.11
  303.131
  303.155
  303.175
  303.228
  303.228
  303.111
  303.053
  303.022
  302.635
  302.987
  302.971
  302.725
  302.591
)
;
  }
  ceiling
  {
    type wallHeatTransfer;
    Tinf uniform 303.2;
    alphaWall uniform 0.24;
    value nonuniform List<scalar> 43
(
  298.628
  298.542
  298.526
  300.707
  301.582
  301.959
  302.191
  302.367
  302.506
  302.615
  302.699
  302.762
  302.807
  302.838
  302.86
  302.875
  302.885
  302.892
  302.897
  302.9
  302.901
  302.901
  302.901
  302.9
  302.899
  302.897
  302.896
  302.894
  302.892
  302.891
  302.889
  302.888
  302.888
  302.889
  302.892
  302.902
  302.912
  302.919
  302.924
  302.962
  304.331
  304.055
  295.043
)
;
  }
  sWall
  {
    type wallHeatTransfer;
    Tinf uniform 315.2;
    alphaWall uniform 0.36;
    value uniform 299.919;
  }
  nWall
  {
    type wallHeatTransfer;
    Tinf uniform 307.2;
    alphaWall uniform 0.36;
    value nonuniform List<scalar> 6
(
  303.497
  303.434
  303.34
  303.562
  303.54
  303.582
)
;
  }
  sideWalls
  {
    type empty;
  }
  glass1
  {
    type wallHeatTransfer;
    Tinf uniform 315.2;
    alphaWall uniform 4.3;
    value nonuniform List<scalar> 9
(
  311.125
  310.444
  310.021
  309.702
  309.439
  309.202
  309.035
  309.122
  309.374
)
;
  }
  glass2
  {
    type wallHeatTransfer;
    Tinf uniform 307.2;
    alphaWall uniform 4.3;
    value nonuniform List<scalar> 2
(
  305.469
  305.607
)
;
  }
  sun
  {
    type wallHeatTransfer;
    Tinf uniform 305.2;
    alphaWall uniform 0.24;
    value nonuniform List<scalar> 14
(
  302.968
  302.698
  302.68
  302.666
  302.654
  302.642
  302.63
  302.618
  302.606
  302.595
  302.587
  302.585
  302.591
  302.607
)
;
  }
  heatsource1
  {
    type fixedGradient;
    gradient uniform 0;
  }
  heatsource2
  {
    type fixedGradient;
    gradient uniform 0;
  }
  Table_master
  {
    type zeroGradient;
  }
  Table_slave
  {
    type zeroGradient;
  }
  inlet
  {
    type fixedValue;
    value uniform 290.15;
  }
  outlet
  {
    type zeroGradient;
  }
} 	// ************************************************************************* //

