/*--------------------------------*- C++ -*----------------------------------*\
  =========                 |
  \\      /  F ield         | OpenFOAM: The Open Source CFD Toolbox
   \\    /   O peration     | Website:  https://openfoam.org
    \\  /    A nd           | Version:  6
     \\/     M anipulation  |
\*---------------------------------------------------------------------------*/
FoamFile
{
    version     2.0;
    format      ascii;
    class       volScalarField;
    location    "1600";
    object      nut;
}
// * * * * * * * * * * * * * * * * * * * * * * * * * * * * * * * * * * * * * //

dimensions      [0 2 -1 0 0 0 0];

internalField   nonuniform List<scalar> 
459
(
0.00113422
0.00124207
0.00126588
0.00132827
0.00138666
0.00144189
0.00149678
0.00154778
0.00158236
0.0015948
0.00158007
0.00153517
0.00145946
0.00135811
0.00124498
0.000512961
0.000621803
0.000698103
0.000694135
0.000670181
0.000638676
0.000599188
0.000560102
0.000524644
0.000493158
0.000465264
0.000440469
0.000418429
0.000398619
0.000380347
0.000362729
0.000344511
0.000333079
0.000305148
0.00154471
0.00386981
0.00374416
0.00437254
0.00499087
0.00560091
0.00612178
0.00652662
0.00688359
0.00716475
0.00733293
0.00734909
0.0071524
0.00658637
0.00503439
0.00127983
0.00071718
0.000548363
0.00114432
0.00158893
0.00191151
0.00208227
0.00207404
0.00166314
0.00143505
0.00127248
0.00114786
0.00104879
0.000968094
0.000897849
0.000832112
0.000768048
0.000711091
0.000660243
0.00078291
0.000405021
0.00188367
0.00529169
0.00467795
0.00587002
0.00647755
0.00692976
0.00727907
0.00756805
0.0078716
0.00817728
0.00844549
0.00862985
0.00867574
0.00849435
0.00783737
0.00595
0.00129947
0.00107136
0.0015537
0.00199983
0.00240246
0.00267518
0.00259964
0.000850714
0.000751092
0.000670991
0.000606369
0.000553754
0.000510464
0.000474583
0.000444882
0.000420883
0.000455115
0.000527086
0.000885056
0.00047265
0.00220667
0.00673286
0.004729
0.00622784
0.0067659
0.00696738
0.00710852
0.00727848
0.00753539
0.00786317
0.00820919
0.00851763
0.00872645
0.00876268
0.00856511
0.00784171
0.00543966
0.00153707
0.00191868
0.00248953
0.00304305
0.00347812
0.00373655
0.00348756
0.000955709
0.000870365
0.000809387
0.0007626
0.000722329
0.00068554
0.000650108
0.000612956
0.000569943
0.00053482
0.000551319
0.00103261
0.000522835
0.00253442
0.00856187
0.00523428
0.00604376
0.00672366
0.00680113
0.00677251
0.00689154
0.00712423
0.00747221
0.0078663
0.00823264
0.00848162
0.00855558
0.00844473
0.00811471
0.00737562
0.00610511
0.00566428
0.00551696
0.00546016
0.0054143
0.0053345
0.00510356
0.00428167
0.00389028
0.00366101
0.00348134
0.00329216
0.00301971
0.00266198
0.00223735
0.0017731
0.00131136
0.000968146
0.00101413
0.000683026
0.000637727
0.000762374
0.000853376
0.0028804
0.0105439
0.0071639
0.00614941
0.00663688
0.00678582
0.00671648
0.00679521
0.0069777
0.0072962
0.00771579
0.00812676
0.00840118
0.00845521
0.00829092
0.00798792
0.00764185
0.00730936
0.00711503
0.00694911
0.00675035
0.00652426
0.00627724
0.00598647
0.00559251
0.00525345
0.0049621
0.00469044
0.00441991
0.0041251
0.00375091
0.0032825
0.00272267
0.00210921
0.00157358
0.00116839
0.000912911
0.000804878
0.00116619
0.000894392
0.00318761
0.0118904
0.00986133
0.00790623
0.00757056
0.00732168
0.00703708
0.00691483
0.0070246
0.00736294
0.00784144
0.00830289
0.00858332
0.00858562
0.00833007
0.00796558
0.00769983
0.00762203
0.00760041
0.00746123
0.00718073
0.00681251
0.00639838
0.00596547
0.00554184
0.0051759
0.00485927
0.00457534
0.00431897
0.00409333
0.00389458
0.00357238
0.00311984
0.00257772
0.00206979
0.0016123
0.00131146
0.00124927
0.0013096
0.00102672
0.00324061
0.0103812
0.00937537
0.0086854
0.00801669
0.00734113
0.00691434
0.0068484
0.00713475
0.00767598
0.00830125
0.00880313
0.00901173
0.00886518
0.00844561
0.00799151
0.00776095
0.00774942
0.00763903
0.00729195
0.00678333
0.00620123
0.00562138
0.00510666
0.00468982
0.00436468
0.00410389
0.00389164
0.00372648
0.00361452
0.00356163
0.00352368
0.00325168
0.00288829
0.00257967
0.0024465
0.00261081
0.00317362
0.00400502
0.00159027
0.00314887
0.0037128
0.00409153
0.00418268
0.00439192
0.0048584
0.00559982
0.0065665
0.0076326
0.00862304
0.00935194
0.00966298
0.00950547
0.00897947
0.00832744
0.00789839
0.00761712
0.00732865
0.00687265
0.00624333
0.00553907
0.0048704
0.00431448
0.00389348
0.00358486
0.00335089
0.0031617
0.00300057
0.00285779
0.00272581
0.00259848
0.00248076
0.00238667
0.00232531
0.00231684
0.00234868
0.00234913
0.00225361
0.00209612
0.00146536
0.00144288
0.003661
0.00664332
0.00860732
0.00991966
0.0107366
0.0110947
0.0110579
0.0107018
0.0101
0.00925387
0.00835023
0.00761778
0.00710107
0.00660015
0.00599858
0.00531311
0.00461691
0.00398764
0.00349241
0.00313665
0.00288749
0.00270825
0.00257273
0.00246613
0.00238165
0.00231726
0.00227439
0.00225816
0.00226646
0.00228829
0.00232118
0.00235464
0.00235774
0.00228332
0.00211422
0.00186319
0.00118112
0.00218235
0.00673747
0.00934223
0.0100447
0.010281
0.0101609
0.00970822
0.00903695
0.0082596
0.00747981
0.00674188
0.00610574
0.00557296
0.00505164
0.00448999
0.00392944
0.0034232
0.00300363
0.00267972
0.00243755
0.00226818
0.00215329
0.00207936
0.00203856
0.00202604
0.00203744
0.00206711
0.00211018
0.00217427
0.00225469
0.00234797
0.00244707
0.00253597
0.00259934
0.00258952
0.00259495
0.00235553
0.00119564
0.00195709
0.0020761
0.00216177
0.00233355
0.00224573
0.0021621
0.00209342
0.00199261
0.00185533
0.00168965
0.00150416
0.00131414
0.00114153
0.00100134
0.000895351
0.000817603
0.000761106
0.000720759
0.000693519
0.000677517
0.00067124
0.000672843
0.000680015
0.000691912
0.000708065
0.000728289
0.00075263
0.000781393
0.000815273
0.000855209
0.000900632
0.000952031
0.00100984
0.00107462
0.00114643
0.00124101
0.00126908
0.00123832
0.0011553
0.00106627
)
;

boundaryField
{
    floor
    {
        type            nutkWallFunction;
        Cmu             0.09;
        kappa           0.41;
        E               9.8;
        value           nonuniform List<scalar> 
29
(
0.000149167
6.13707e-05
7.50684e-05
8.44944e-05
8.4007e-05
8.10596e-05
7.71637e-05
7.22477e-05
6.73427e-05
6.28567e-05
5.88417e-05
5.52582e-05
5.205e-05
4.91792e-05
4.65824e-05
4.41727e-05
4.1835e-05
3.94024e-05
3.78672e-05
3.4087e-05
3.40869e-05
4.7423e-05
5.62093e-05
6.26267e-05
0.000149167
6.13707e-05
6.5862e-05
0.00012908
0.000182279
)
;
    }
    ceiling
    {
        type            nutkWallFunction;
        Cmu             0.09;
        kappa           0.41;
        E               9.8;
        value           nonuniform List<scalar> 
43
(
0.000228529
0.000241462
0.000250724
0.000269324
0.000259952
0.00025096
0.00024354
0.000232593
0.00021758
0.000199297
0.000178591
0.000157084
0.000137243
0.000120878
0.000108331
9.90175e-05
9.2185e-05
8.7269e-05
8.39316e-05
8.1964e-05
8.11906e-05
8.13882e-05
8.22715e-05
8.37344e-05
8.57158e-05
8.81891e-05
9.1155e-05
9.46451e-05
9.87369e-05
0.000103534
0.00010896
0.00011506
0.000121877
0.000129462
0.000137811
0.000148718
0.000151936
0.000148409
0.000138839
0.000128489
0.000355585
0.000413687
0.000252738
)
;
    }
    sWall
    {
        type            nutkWallFunction;
        Cmu             0.09;
        kappa           0.41;
        E               9.8;
        value           uniform 0.000228594;
    }
    nWall
    {
        type            nutkWallFunction;
        Cmu             0.09;
        kappa           0.41;
        E               9.8;
        value           nonuniform List<scalar> 6(0.000103317 0.000108219 0.000123863 0.000141834 0.00014351 0.000128497);
    }
    sideWalls
    {
        type            empty;
    }
    glass1
    {
        type            nutkWallFunction;
        Cmu             0.09;
        kappa           0.41;
        E               9.8;
        value           nonuniform List<scalar> 9(0.000136521 0.00018339 0.000221032 0.000256218 0.000291362 0.000327945 0.000360048 0.000365564 0.000356047);
    }
    glass2
    {
        type            nutkWallFunction;
        Cmu             0.09;
        kappa           0.41;
        E               9.8;
        value           nonuniform List<scalar> 2(0.000188333 0.000174311);
    }
    sun
    {
        type            nutkWallFunction;
        Cmu             0.09;
        kappa           0.41;
        E               9.8;
        value           nonuniform List<scalar> 
14
(
0.000136395
0.000148833
0.000151563
0.000158689
0.000165324
0.000171573
0.000177757
0.000183479
0.000187348
0.000188737
0.000187092
0.000182065
0.000173555
0.000162084
)
;
    }
    heatsource1
    {
        type            nutkWallFunction;
        Cmu             0.09;
        kappa           0.41;
        E               9.8;
        value           nonuniform List<scalar> 3(7.70486e-05 9.23391e-05 0.000103314);
    }
    heatsource2
    {
        type            nutkWallFunction;
        Cmu             0.09;
        kappa           0.41;
        E               9.8;
        value           nonuniform List<scalar> 4(0.000153154 8.68308e-05 8.68308e-05 0.000155397);
    }
    Table_master
    {
        type            nutkWallFunction;
        Cmu             0.09;
        kappa           0.41;
        E               9.8;
        value           nonuniform List<scalar> 9(0.000102993 9.09675e-05 8.11616e-05 7.31483e-05 6.65474e-05 6.1059e-05 5.64662e-05 5.26318e-05 4.95101e-05);
    }
    Table_slave
    {
        type            nutkWallFunction;
        Cmu             0.09;
        kappa           0.41;
        E               9.8;
        value           nonuniform List<scalar> 9(0.000115491 0.000105345 9.80259e-05 9.23659e-05 8.74613e-05 8.29522e-05 7.85822e-05 7.3969e-05 6.85854e-05);
    }
    inlet
    {
        type            calculated;
        value           uniform 0.000100623;
    }
    outlet
    {
        type            calculated;
        value           nonuniform List<scalar> 2(0.00195709 0.0020761);
    }
}


// ************************************************************************* //
