// -*- C++ -*-
// File generated by PyFoam - sorry for the ugliness

FoamFile
{
 version 2.0;
 format ascii;
 class volVectorField;
 location "1100";
 object U;
}

dimensions [ 0 1 -1 0 0 0 0 ];

internalField nonuniform List<vector> 459
(
  (0.0322756 0.0884436 0)
  (-0.172124 0.0267833 0)
  (-0.197873 0.0179641 0)
  (-0.228744 0.0118376 0)
  (-0.250313 0.00516975 0)
  (-0.261598 -0.00179549 0)
  (-0.261106 -0.00906403 0)
  (-0.248292 -0.0165839 0)
  (-0.224167 -0.0235499 0)
  (-0.190934 -0.0288438 0)
  (-0.152152 -0.0316567 0)
  (-0.111685 -0.031698 0)
  (-0.0731777 -0.0292664 0)
  (-0.0416347 -0.025709 0)
  (-0.0319452 -0.0227777 0)
  (-0.00432422 0.0089087 0)
  (-0.0285885 -0.019461 0)
  (-0.00299896 -0.0297887 0)
  (0.0218187 -0.0224377 0)
  (0.0395267 -0.0152607 0)
  (0.0531387 -0.00983826 0)
  (0.0614245 -0.00586109 0)
  (0.0656338 -0.00377293 0)
  (0.0675389 -0.00288356 0)
  (0.0685202 -0.0024576 0)
  (0.069145 -0.00217651 0)
  (0.0694926 -0.00194298 0)
  (0.0694901 -0.00166494 0)
  (0.0689151 -0.00115704 0)
  (0.0671638 -1.67384e-05 0)
  (0.0629553 0.00231943 0)
  (0.0548912 0.00482242 0)
  (0.0470621 0.00700445 0)
  (-0.0127846 0.0232022 0)
  (0.208041 0.180621 0)
  (-0.158728 0.0703837 0)
  (-0.158005 0.0533415 0)
  (-0.189514 0.0404426 0)
  (-0.210655 0.0260014 0)
  (-0.22203 0.010069 0)
  (-0.222077 -0.00742708 0)
  (-0.210271 -0.0254816 0)
  (-0.188206 -0.0415465 0)
  (-0.158422 -0.0531644 0)
  (-0.124467 -0.058886 0)
  (-0.0898236 -0.0584878 0)
  (-0.0576231 -0.0525485 0)
  (-0.0311711 -0.0426255 0)
  (-0.0146491 -0.0307275 0)
  (-0.00104948 -0.0128426 0)
  (-0.00263778 0.017295 0)
  (0.0696667 0.0373454 0)
  (0.0309662 -0.0211615 0)
  (0.0392865 -0.0347012 0)
  (0.0515612 -0.0301445 0)
  (0.0612981 -0.021215 0)
  (0.0680543 -0.0128234 0)
  (0.0708895 -0.00539413 0)
  (0.0713673 -0.00124907 0)
  (0.0712774 0.000478927 0)
  (0.0713706 0.00124655 0)
  (0.0715656 0.00171285 0)
  (0.0717051 0.002105 0)
  (0.071741 0.00261339 0)
  (0.0716137 0.00360262 0)
  (0.0707542 0.00604465 0)
  (0.0665582 0.0127804 0)
  (0.0560285 0.0185042 0)
  (0.0506014 0.0225519 0)
  (-0.0531733 0.0499076 0)
  (0.36883 0.269686 0)
  (-0.173262 0.111283 0)
  (-0.117986 0.0856882 0)
  (-0.147869 0.0630192 0)
  (-0.166277 0.0393747 0)
  (-0.17626 0.0136341 0)
  (-0.175187 -0.0145506 0)
  (-0.162515 -0.0430628 0)
  (-0.141013 -0.0674291 0)
  (-0.113859 -0.0839757 0)
  (-0.0845369 -0.0910876 0)
  (-0.055734 -0.0891515 0)
  (-0.0294238 -0.0792389 0)
  (-0.00760172 -0.0632841 0)
  (0.00860493 -0.0419483 0)
  (0.0195926 -0.0162691 0)
  (0.024618 0.0213487 0)
  (0.1202 -0.0361117 0)
  (0.0803327 -0.0448454 0)
  (0.0747976 -0.0433564 0)
  (0.0768798 -0.0360259 0)
  (0.0785457 -0.0264411 0)
  (0.079748 -0.018091 0)
  (0.0781124 -0.0143444 0)
  (0.0732826 -0.00999875 0)
  (0.0698644 -0.00762616 0)
  (0.0683247 -0.00626031 0)
  (0.0676592 -0.00538034 0)
  (0.0673227 -0.00476111 0)
  (0.0673323 -0.00418753 0)
  (0.0682001 -0.00325787 0)
  (0.0712265 0.000125905 0)
  (0.0689375 0.0183699 0)
  (0.0543519 0.0312293 0)
  (0.0567951 0.0400008 0)
  (-0.0893483 0.0773403 0)
  (0.513487 0.34103 0)
  (-0.205812 0.147233 0)
  (-0.0765876 0.112802 0)
  (-0.103762 0.0817357 0)
  (-0.116368 0.0510578 0)
  (-0.121946 0.016849 0)
  (-0.115883 -0.0219834 0)
  (-0.100113 -0.060795 0)
  (-0.078912 -0.0920304 0)
  (-0.0556285 -0.111641 0)
  (-0.0329797 -0.118734 0)
  (-0.0121849 -0.114891 0)
  (0.0066129 -0.101263 0)
  (0.0220619 -0.0812216 0)
  (0.0356555 -0.0566714 0)
  (0.050683 -0.0290632 0)
  (0.0733737 0.00170956 0)
  (0.106446 0.0140314 0)
  (0.112194 -0.0286784 0)
  (0.0965802 -0.0391045 0)
  (0.0869171 -0.0370608 0)
  (0.0819579 -0.0315587 0)
  (0.0785314 -0.0240862 0)
  (0.0766382 -0.014915 0)
  (0.0785189 -0.00881156 0)
  (0.0836068 -0.00662981 0)
  (0.0877129 -0.00536376 0)
  (0.0902552 -0.00439302 0)
  (0.0915408 -0.00326621 0)
  (0.0909426 -0.00170142 0)
  (0.0875099 0.000494579 0)
  (0.0799989 0.00363696 0)
  (0.0653744 0.00833864 0)
  (0.0531738 0.0298815 0)
  (0.0407886 0.0476567 0)
  (0.0601045 0.0613819 0)
  (-0.130635 0.100962 0)
  (0.637687 0.396083 0)
  (-0.246172 0.176352 0)
  (-0.0367023 0.127778 0)
  (-0.0577925 0.0917792 0)
  (-0.0617785 0.0568201 0)
  (-0.058708 0.0157085 0)
  (-0.0406859 -0.0335996 0)
  (-0.0209608 -0.0796324 0)
  (-0.00203159 -0.113465 0)
  (0.0142547 -0.132231 0)
  (0.0268417 -0.136531 0)
  (0.0366503 -0.129777 0)
  (0.0442193 -0.114334 0)
  (0.0504775 -0.09297 0)
  (0.0566662 -0.0683782 0)
  (0.0647305 -0.043758 0)
  (0.0774187 -0.0252517 0)
  (0.0884511 -0.0248958 0)
  (0.0894275 -0.0339335 0)
  (0.0821755 -0.0346439 0)
  (0.0732462 -0.0308808 0)
  (0.0662111 -0.0259284 0)
  (0.0611269 -0.0202221 0)
  (0.0583067 -0.0138381 0)
  (0.0583799 -0.00765344 0)
  (0.0609192 -0.00462689 0)
  (0.0636866 -0.0033689 0)
  (0.0662002 -0.00225512 0)
  (0.0683319 -0.000239988 0)
  (0.0696127 0.00311578 0)
  (0.0688973 0.00787725 0)
  (0.0656762 0.0142398 0)
  (0.0592276 0.0229689 0)
  (0.0516325 0.0394402 0)
  (0.0403912 0.0593013 0)
  (0.0678012 0.0810852 0)
  (-0.0326706 0.113644 0)
  (0.0472135 0.0282945 0)
  (-0.0688889 -0.0379666 0)
  (-0.285047 -0.0613843 0)
  (0.72726 0.441651 0)
  (-0.28541 0.195377 0)
  (-0.00668387 0.121939 0)
  (-0.00921158 0.089523 0)
  (0.000128712 0.0526414 0)
  (0.0227738 0.00198001 0)
  (0.0521476 -0.0538487 0)
  (0.0718313 -0.0975717 0)
  (0.0838712 -0.126417 0)
  (0.0891003 -0.140588 0)
  (0.0890498 -0.141687 0)
  (0.0854558 -0.132346 0)
  (0.0798806 -0.115393 0)
  (0.0739565 -0.0937927 0)
  (0.0691275 -0.070306 0)
  (0.0666644 -0.0480095 0)
  (0.0672683 -0.0310398 0)
  (0.067638 -0.024491 0)
  (0.0637531 -0.0247428 0)
  (0.0558683 -0.0247477 0)
  (0.0471114 -0.0226395 0)
  (0.0399264 -0.0194932 0)
  (0.0348702 -0.0158701 0)
  (0.03223 -0.0119596 0)
  (0.032127 -0.00856238 0)
  (0.0340682 -0.00716575 0)
  (0.0369217 -0.0067501 0)
  (0.040217 -0.00595944 0)
  (0.0437164 -0.00374046 0)
  (0.0472968 0.000711826 0)
  (0.0498987 0.00736984 0)
  (0.0509953 0.0159546 0)
  (0.0508627 0.026859 0)
  (0.0510313 0.0421081 0)
  (0.0488461 0.0613921 0)
  (0.0758699 0.0864125 0)
  (0.0490583 0.106196 0)
  (0.0970735 0.0705216 0)
  (0.121812 0.0455525 0)
  (-0.138314 -0.0102088 0)
  (0.784623 0.483294 0)
  (-0.303291 0.17957 0)
  (0.0246468 0.0653324 0)
  (0.0587615 0.054103 0)
  (0.0864099 0.0260955 0)
  (0.131219 -0.0289089 0)
  (0.159616 -0.0768461 0)
  (0.172934 -0.11044 0)
  (0.173323 -0.129828 0)
  (0.163603 -0.136485 0)
  (0.147042 -0.132384 0)
  (0.126765 -0.120015 0)
  (0.105481 -0.102172 0)
  (0.0854369 -0.0815136 0)
  (0.0681952 -0.0602271 0)
  (0.054714 -0.0407962 0)
  (0.0451688 -0.0261737 0)
  (0.0378226 -0.0187376 0)
  (0.0303076 -0.016732 0)
  (0.022121 -0.016257 0)
  (0.0144267 -0.0152521 0)
  (0.00834278 -0.0138182 0)
  (0.00423212 -0.0122491 0)
  (0.00225632 -0.0106963 0)
  (0.00238822 -0.00964984 0)
  (0.0041298 -0.00966211 0)
  (0.00675933 -0.0100534 0)
  (0.00998746 -0.00986346 0)
  (0.0138301 -0.00816926 0)
  (0.0184197 -0.00393083 0)
  (0.0249271 0.00365042 0)
  (0.0304164 0.013025 0)
  (0.0358758 0.0239652 0)
  (0.0431369 0.0374276 0)
  (0.0505097 0.0531354 0)
  (0.0755416 0.0735054 0)
  (0.0879527 0.0814056 0)
  (0.124567 0.0532669 0)
  (0.167131 0.0432455 0)
  (-0.0328727 0.0965264 0)
  (0.892616 0.482334 0)
  (-0.05496 0.157691 0)
  (0.120316 -0.0243611 0)
  (0.210844 -0.0616079 0)
  (0.257778 -0.0759283 0)
  (0.281962 -0.0925117 0)
  (0.289659 -0.107485 0)
  (0.280649 -0.116636 0)
  (0.257273 -0.118925 0)
  (0.223877 -0.114636 0)
  (0.185225 -0.104674 0)
  (0.145418 -0.0903323 0)
  (0.107721 -0.0734876 0)
  (0.0744092 -0.0559199 0)
  (0.0466212 -0.0388036 0)
  (0.0251504 -0.0239836 0)
  (0.00998282 -0.0137653 0)
  (-0.000481851 -0.00904077 0)
  (-0.00837037 -0.008248 0)
  (-0.0150891 -0.00868992 0)
  (-0.0207582 -0.00906464 0)
  (-0.025127 -0.00928846 0)
  (-0.0281326 -0.00949377 0)
  (-0.0297755 -0.00980645 0)
  (-0.0301896 -0.010432 0)
  (-0.029766 -0.0114548 0)
  (-0.0289193 -0.0125238 0)
  (-0.0277659 -0.0131532 0)
  (-0.0261311 -0.0128382 0)
  (-0.0235671 -0.0109786 0)
  (-0.0188609 -0.00679453 0)
  (-0.00882224 0.00028476 0)
  (-0.000654928 0.00874806 0)
  (0.0104711 0.0172746 0)
  (0.0220364 0.0250372 0)
  (0.0434278 0.0339506 0)
  (0.0624185 0.0264743 0)
  (0.0819447 -0.00519209 0)
  (0.14365 0.044094 0)
  (-0.451526 0.220552 0)
  (1.04492 0.426676 0)
  (0.494926 0.278594 0)
  (0.514386 0.172147 0)
  (0.549554 0.0926511 0)
  (0.52881 0.0378065 0)
  (0.480347 -0.0049555 0)
  (0.42438 -0.0356383 0)
  (0.363363 -0.0538248 0)
  (0.298228 -0.0610824 0)
  (0.232422 -0.0600726 0)
  (0.170055 -0.053513 0)
  (0.114005 -0.0434008 0)
  (0.066468 -0.031932 0)
  (0.0278284 -0.0207444 0)
  (-0.00279154 -0.0106304 0)
  (-0.0231348 -0.00409908 0)
  (-0.0347485 -0.00142194 0)
  (-0.041824 -0.00111465 0)
  (-0.0468954 -0.00209289 0)
  (-0.0513352 -0.00345974 0)
  (-0.0552714 -0.00479818 0)
  (-0.0586685 -0.00607192 0)
  (-0.061539 -0.00731478 0)
  (-0.0639708 -0.00855349 0)
  (-0.0661666 -0.00981216 0)
  (-0.0684598 -0.0110179 0)
  (-0.071202 -0.0119002 0)
  (-0.0746915 -0.0120597 0)
  (-0.0792589 -0.0109852 0)
  (-0.0854066 -0.00801494 0)
  (-0.0938512 -0.00236424 0)
  (-0.104078 0.00644589 0)
  (-0.114991 0.0181373 0)
  (-0.132129 0.0330916 0)
  (-0.159137 0.0511396 0)
  (-0.198417 0.070254 0)
  (-0.254003 0.0851548 0)
  (-0.316987 0.0928952 0)
  (-0.388645 0.0941676 0)
  (-0.657468 0.0894445 0)
  (-0.17623 -0.0222685 0)
  (0.0990289 -0.0392844 0)
  (0.176338 -0.0573598 0)
  (0.162931 -0.0489297 0)
  (0.142961 -0.0351788 0)
  (0.1182 -0.0228166 0)
  (0.0857884 -0.0123681 0)
  (0.0496738 -0.00429929 0)
  (0.0146418 0.00119005 0)
  (-0.0179775 0.00472917 0)
  (-0.0410837 0.0059097 0)
  (-0.0579092 0.00592645 0)
  (-0.0685051 0.00488306 0)
  (-0.0739591 0.00275461 0)
  (-0.0770884 0.000294977 0)
  (-0.0793079 -0.00222996 0)
  (-0.0814363 -0.004787 0)
  (-0.0838375 -0.00715995 0)
  (-0.0866726 -0.00909803 0)
  (-0.0897538 -0.0105398 0)
  (-0.0929529 -0.0115821 0)
  (-0.0963571 -0.0122674 0)
  (-0.100124 -0.012618 0)
  (-0.104416 -0.0125584 0)
  (-0.109317 -0.0118557 0)
  (-0.114772 -0.0101311 0)
  (-0.120542 -0.00690363 0)
  (-0.126188 -0.00164625 0)
  (-0.130985 0.00594397 0)
  (-0.134665 0.0163238 0)
  (-0.137624 0.0304952 0)
  (-0.140399 0.0489574 0)
  (-0.144062 0.0707282 0)
  (-0.149217 0.0912653 0)
  (-0.15242 0.0991374 0)
  (-0.134841 0.0722344 0)
  (-0.0835826 -0.0310081 0)
  (-0.288766 -0.223574 0)
  (0.0405969 0.19611 0)
  (0.0126341 0.0617052 0)
  (-0.0325132 0.0103886 0)
  (-0.0572303 0.00997137 0)
  (-0.0762767 0.0163359 0)
  (-0.0902055 0.0211201 0)
  (-0.0994695 0.0249834 0)
  (-0.106233 0.028066 0)
  (-0.111026 0.0298271 0)
  (-0.114117 0.0300714 0)
  (-0.115329 0.0293883 0)
  (-0.115214 0.0289752 0)
  (-0.114011 0.0289529 0)
  (-0.112345 0.0293821 0)
  (-0.110829 0.0304775 0)
  (-0.109707 0.0320727 0)
  (-0.109119 0.0337148 0)
  (-0.109097 0.034879 0)
  (-0.109572 0.0350632 0)
  (-0.110519 0.0340535 0)
  (-0.111914 0.0324795 0)
  (-0.113722 0.0306447 0)
  (-0.115903 0.0286673 0)
  (-0.118395 0.0266408 0)
  (-0.121088 0.0246712 0)
  (-0.123794 0.022875 0)
  (-0.126211 0.0213529 0)
  (-0.127785 0.0204424 0)
  (-0.127659 0.0214433 0)
  (-0.124564 0.0255373 0)
  (-0.116902 0.0338634 0)
  (-0.103487 0.0475268 0)
  (-0.0845899 0.066356 0)
  (-0.0614549 0.0855452 0)
  (-0.0370474 0.0966935 0)
  (0.00583047 0.0796009 0)
  (0.144869 0.0035405 0)
  (-0.208254 -0.136303 0)
  (-0.0893931 -0.345328 0)
  (-0.445521 -0.138487 0)
  (-0.332941 0.0432129 0)
  (-0.293337 -0.0433124 0)
  (-0.253101 -0.0489502 0)
  (-0.242354 -0.0413938 0)
  (-0.234583 -0.0343747 0)
  (-0.225369 -0.0299616 0)
  (-0.213763 -0.0277334 0)
  (-0.200116 -0.0277942 0)
  (-0.185471 -0.0306466 0)
  (-0.171256 -0.0362424 0)
  (-0.158676 -0.0437519 0)
  (-0.1483 -0.0519243 0)
  (-0.140179 -0.060272 0)
  (-0.134127 -0.0685607 0)
  (-0.129737 -0.0764357 0)
  (-0.126554 -0.0835099 0)
  (-0.124258 -0.0893464 0)
  (-0.122678 -0.0935027 0)
  (-0.121778 -0.0956796 0)
  (-0.121578 -0.09577 0)
  (-0.12205 -0.0944034 0)
  (-0.123043 -0.0919436 0)
  (-0.124386 -0.0885637 0)
  (-0.125886 -0.084348 0)
  (-0.127291 -0.0792812 0)
  (-0.128254 -0.0732333 0)
  (-0.128325 -0.0659367 0)
  (-0.126893 -0.0572741 0)
  (-0.12281 -0.0476638 0)
  (-0.113951 -0.0368988 0)
  (-0.0974155 -0.0244194 0)
  (-0.0710645 -0.00923826 0)
  (-0.0361072 0.00939578 0)
  (0.0221231 0.0333709 0)
  (0.0727856 0.0346194 0)
  (0.121189 0.013374 0)
  (0.175701 -0.0268582 0)
  (-0.181604 -0.0944326 0)
)
;

boundaryField
{
  floor
  {
    type noSlip;
  }
  ceiling
  {
    type noSlip;
  }
  sWall
  {
    type noSlip;
  }
  nWall
  {
    type noSlip;
  }
  sideWalls
  {
    type empty;
  }
  glass1
  {
    type noSlip;
  }
  glass2
  {
    type noSlip;
  }
  sun
  {
    type noSlip;
  }
  heatsource1
  {
    type noSlip;
  }
  heatsource2
  {
    type noSlip;
  }
  Table_master
  {
    type noSlip;
  }
  Table_slave
  {
    type noSlip;
  }
  inlet
  {
    type fixedValue;
    value uniform (0.277164 -0.114805 0);
  }
  outlet
  {
    type zeroGradient;
  }
} 	// ************************************************************************* //

