/*--------------------------------*- C++ -*----------------------------------*\
  =========                 |
  \\      /  F ield         | OpenFOAM: The Open Source CFD Toolbox
   \\    /   O peration     | Website:  https://openfoam.org
    \\  /    A nd           | Version:  6
     \\/     M anipulation  |
\*---------------------------------------------------------------------------*/
FoamFile
{
    version     2.0;
    format      ascii;
    class       surfaceScalarField;
    location    "1800";
    object      phi;
}
// * * * * * * * * * * * * * * * * * * * * * * * * * * * * * * * * * * * * * //

dimensions      [1 0 -1 0 0 0 0];

internalField   nonuniform List<scalar> 
852
(
-0.00303578
0.00309555
-0.00411171
0.00107593
-0.00491263
0.000800912
-0.00552625
0.000613624
-0.00592112
0.000394873
-0.00607389
0.00015277
-0.00596382
-0.000110074
-0.0055796
-0.000384217
-0.00494501
-0.00063459
-0.00412243
-0.000822587
-0.00320041
-0.000922021
-0.00227335
-0.000927056
-0.00142391
-0.000849439
-0.000687018
-0.000736897
-0.000684976
-0.000792362
0.000796045
-0.000438734
-0.000353628
0.000238694
-0.000677427
0.000769936
-0.000531242
0.00112395
-0.000354011
0.00134468
-0.000220738
0.00146401
-0.000119328
0.00152217
-5.81607e-05
0.00155429
-3.21138e-05
0.00157347
-1.91774e-05
0.0015837
-1.02342e-05
0.00158636
-2.6579e-06
0.00157956
6.80343e-06
0.00155453
2.50289e-05
0.00148775
6.67787e-05
0.00133994
0.000147813
0.00109861
0.000241334
0.00080369
0.000294916
0.000808677
-0.00216026
0.00541636
-0.00320142
0.00211709
-0.00402056
0.00162005
-0.0046222
0.00121527
-0.005009
0.000781666
-0.00516647
0.000310241
-0.0050712
-0.000205349
-0.0047178
-0.000737618
-0.00414201
-0.00121038
-0.00341277
-0.00155183
-0.00261555
-0.00171924
-0.00183008
-0.00171252
-0.00112775
-0.00155178
-0.000588307
-0.00127634
-0.000365808
-0.000907475
2.6079e-05
-0.000391939
2.60276e-05
0.000402072
0.000404537
0.000839738
-0.000791294
0.00110478
-0.000942467
0.00133506
-0.000761527
0.00151053
-0.00052948
0.00161525
-0.00032546
0.00163172
-0.0001358
0.00163579
-6.22236e-05
0.00164077
-3.70984e-05
0.00164493
-2.33404e-05
0.00164765
-1.29488e-05
0.0016489
-3.90856e-06
0.00164779
7.91594e-06
0.0016405
3.23144e-05
0.00159637
0.000110917
0.00140859
0.000335594
0.00108801
0.000561915
0.00069214
0.000690782
0.00151347
-0.00150746
0.00716908
-0.00240266
0.00301228
-0.00312385
0.00234124
-0.00363317
0.00172459
-0.00396328
0.00111178
-0.00409433
0.000441287
-0.00398304
-0.000316641
-0.00362578
-0.00109488
-0.00308178
-0.00175437
-0.00242888
-0.00220474
-0.00174721
-0.00240091
-0.00109489
-0.00236485
-0.000519509
-0.00212716
-6.09624e-05
-0.00173488
0.000243684
-0.00121212
0.000409317
-0.000557573
0.000435344
0.00160558
-0.00118985
0.00183573
-0.00102144
0.00179571
-0.00090245
0.00178836
-0.000754182
0.00181281
-0.000553922
0.00183332
-0.000345974
0.00169767
0.0016356
0.00159866
0.00157547
0.00156268
0.00155893
0.001567
0.00159946
0.00171054
0.00140185
0.000644278
0.0010334
0.000930366
0.000584527
0.00113966
0.00211711
-0.00104838
0.0085348
-0.0017552
0.0037191
-0.00222418
0.00281022
-0.00254714
0.00204755
-0.00274667
0.00131132
-0.00278384
0.000478447
-0.00259311
-0.000507368
-0.00219948
-0.00148851
-0.00169421
-0.00225965
-0.00115127
-0.00274767
-0.000630685
-0.0029215
-0.000158219
-0.00283732
0.000251631
-0.00253701
0.000596674
-0.00207993
0.000910036
-0.00152549
0.00128342
-0.000930958
0.00213422
-0.000415456
0.00261497
-0.000470588
0.00217693
-0.000751806
0.00203496
-0.000879478
0.00191537
-0.000782857
0.00181434
-0.000653148
0.00176144
-0.00050103
0.00174103
-0.000325559
0.00188261
-0.000141739
0.00197447
-9.20058e-05
0.00204787
-7.35563e-05
0.00210177
-5.40533e-05
0.00211958
-1.79681e-05
0.00207872
4.07143e-05
0.0019543
0.000124259
0.00171398
0.000240169
0.0013013
0.000412528
0.00115035
0.000795232
0.000824557
0.00125616
0.000330671
0.00163355
0.00247276
-0.000731662
0.00964504
-0.00126598
0.00425342
-0.00134841
0.00289265
-0.00138349
0.00208263
-0.0013667
0.00129452
-0.00119524
0.000306995
-0.000839878
-0.000862735
-0.000408805
-0.00191958
9.40761e-06
-0.00267787
0.000367029
-0.0031053
0.000652033
-0.0032065
0.000869251
-0.00305454
0.00103883
-0.00270659
0.00118652
-0.00222761
0.00134452
-0.00168349
0.00156072
-0.00114716
0.00187465
-0.000729387
0.00199914
-0.000595077
0.00189852
-0.000651185
0.00170895
-0.000689906
0.00155128
-0.000625195
0.00142439
-0.000526254
0.00134038
-0.000417018
0.00131388
-0.000299067
0.00137083
-0.000198682
0.00143494
-0.000156119
0.00150192
-0.000140531
0.00156625
-0.000118392
0.00161461
-6.63216e-05
0.00162521
3.01165e-05
0.00157776
0.000171703
0.00146199
0.000355943
0.00128077
0.000593744
0.00111961
0.000956399
0.000942295
0.00143347
0.000539027
0.00203681
0.000406985
0.00260481
-0.00112093
0.00152771
-0.00158292
0.000461787
-0.00152889
-0.000635625
0.0107109
-0.000996222
0.00461402
-0.000538406
0.00243483
-0.000107597
0.00165183
0.000271026
0.000915895
0.000770614
-0.000192593
0.00129566
-0.00138779
0.0016828
-0.00230672
0.00190927
-0.00290434
0.00199243
-0.00318846
0.00197487
-0.00318895
0.00188506
-0.00296473
0.0017594
-0.00258093
0.0016349
-0.00210312
0.00154287
-0.00159146
0.00150554
-0.00110982
0.00151354
-0.000737385
0.00146715
-0.000548689
0.00132369
-0.000507729
0.00112795
-0.000494168
0.000955642
-0.000452886
0.000825341
-0.000395952
0.000744307
-0.000335983
0.00072187
-0.000276631
0.000755964
-0.000232776
0.000819089
-0.000219243
0.00089762
-0.000219062
0.000985173
-0.000205944
0.00107438
-0.000155524
0.00114865
-4.41603e-05
0.00118925
0.000131108
0.00119759
0.000347601
0.00118236
0.000608973
0.00119434
0.000944426
0.00128712
0.00134069
0.00146765
0.00185628
0.00195866
0.0021138
0.00223835
0.00124801
0.00184888
0.000851266
0.000384705
-0.000664499
0.0118528
-0.000520363
0.00446989
0.000707878
0.00120659
0.00162677
0.000732935
0.00247316
6.95088e-05
0.00325861
-0.000978049
0.00374718
-0.00187636
0.00393337
-0.00249291
0.00385885
-0.00282982
0.00358506
-0.00291467
0.0031828
-0.00278669
0.00271512
-0.00249705
0.00223918
-0.002105
0.00180229
-0.00166623
0.0014345
-0.00122367
0.00114943
-0.000824745
0.000939936
-0.000527895
0.000759742
-0.000368495
0.000571445
-0.000319432
0.000386295
-0.000309018
0.000231864
-0.000298454
0.000120446
-0.000284534
5.56573e-05
-0.000271194
4.01826e-05
-0.000261156
6.83962e-05
-0.000260989
0.00012406
-0.000274906
0.000196384
-0.000291385
0.000283895
-0.000293455
0.000390863
-0.000262492
0.000521774
-0.00017507
0.000655665
-2.78278e-06
0.000782846
0.00022042
0.000921806
0.000470014
0.00111282
0.000753409
0.00140936
0.00104416
0.00188586
0.00137978
0.00262479
0.00137487
0.00322103
0.000651776
0.00328695
0.000785348
0.00374108
0.0027614
0.00962604
0.0035373
0.00369399
0.00415045
0.000593432
0.0051388
-0.000255407
0.00605926
-0.000850959
0.00653525
-0.00145403
0.00657062
-0.00191174
0.00623478
-0.00215707
0.00561569
-0.00221074
0.0048118
-0.00211078
0.00392138
-0.00189628
0.00302744
-0.00160311
0.00219671
-0.00127427
0.00147641
-0.000945919
0.000887688
-0.000634958
0.000438193
-0.00037525
0.000121291
-0.000210993
-0.000103485
-0.000143719
-0.000280462
-0.000142454
-0.000426575
-0.000162905
-0.000541961
-0.000183067
-0.000625402
-0.000201092
-0.000677731
-0.000218865
-0.000700584
-0.000238303
-0.000699646
-0.000261927
-0.000685054
-0.000289498
-0.000662541
-0.000313898
-0.000630507
-0.000325488
-0.000578975
-0.000314023
-0.00048675
-0.000267295
-0.000322547
-0.000166986
-0.000117706
1.55799e-05
0.000110884
0.000241424
0.000393484
0.00047081
0.000737273
0.000700371
0.00119417
0.000922881
0.00167753
0.000891508
0.00181241
0.000516905
0.000976296
0.00162146
0.00501056
0.0102182
0.0139083
0.0129754
0.0015263
0.0123546
0.000365335
0.0116134
-0.000109681
0.0105853
-0.000426025
0.00928854
-0.000614934
0.00783401
-0.000702545
0.00632214
-0.000698872
0.00483945
-0.000628095
0.00346453
-0.000521361
0.00224869
-0.000387273
0.00122549
-0.000251073
0.000404434
-0.000124868
-0.000208028
-2.24952e-05
-0.00061083
2.75534e-05
-0.000851171
2.93484e-05
-0.0010045
9.61099e-06
-0.00112292
-2.40333e-05
-0.00122411
-6.1717e-05
-0.00131116
-9.60151e-05
-0.00138507
-0.000127175
-0.00144835
-0.000155592
-0.00150466
-0.000181986
-0.00156003
-0.000206561
-0.00162251
-0.000227011
-0.00169945
-0.000236965
-0.00179804
-0.000226889
-0.00192737
-0.000184699
-0.00209914
-9.55219e-05
-0.00232019
5.40629e-05
-0.00257625
0.000271639
-0.00291058
0.000575762
-0.00342499
0.000985218
-0.00421705
0.00149243
-0.00534186
0.00204769
-0.00690721
0.00245686
-0.00876256
0.00237225
-0.00813451
0.000993407
-0.00279815
0.00437141
0.00338847
0.00336148
0.00137525
0.00366395
-0.000412153
0.00361412
-0.000376191
0.0031679
-0.000168713
0.00249255
-2.71971e-05
0.00169939
9.42888e-05
0.000880806
0.000190493
0.000111633
0.000247814
-0.000539349
0.000263711
-0.00103247
0.000242045
-0.00137162
0.000214284
-0.00157603
0.000181921
-0.00169061
0.000142134
-0.00176318
0.000101915
-0.00181966
6.60931e-05
-0.00187737
3.36794e-05
-0.00194279
3.70282e-06
-0.00201334
-2.54633e-05
-0.00208671
-5.38064e-05
-0.00216496
-7.73332e-05
-0.00225125
-9.56935e-05
-0.0023491
-0.000108712
-0.00246124
-0.000114874
-0.00258771
-0.000110494
-0.00272487
-8.97323e-05
-0.00286393
-4.5639e-05
-0.0029896
3.01546e-05
-0.00309382
0.000158285
-0.00318128
0.0003591
-0.00326296
0.000657438
-0.00335126
0.00107352
-0.00345026
0.00159143
-0.00350099
0.00209842
-0.00341224
0.00236811
-0.00298601
0.00194602
-0.00165841
-0.000334191
-0.00437166
-0.000797963
0.0042707
-0.000339286
0.000916574
-0.00100483
0.000253392
-0.00151287
0.000131852
-0.00185685
0.000175266
-0.00211483
0.000230792
-0.002301
0.000280455
-0.00243233
0.000321834
-0.00251954
0.000335022
-0.00256807
0.000312243
-0.00258896
0.000262941
-0.00258246
0.00020778
-0.00255587
0.000155339
-0.00252312
0.000109385
-0.00249487
7.36584e-05
-0.00247631
4.75396e-05
-0.00247022
2.75861e-05
-0.0024774
1.08866e-05
-0.00249546
-7.40108e-06
-0.00252489
-2.43768e-05
-0.00256473
-3.74907e-05
-0.00261407
-4.63545e-05
-0.00267179
-5.09858e-05
-0.00273602
-5.06447e-05
-0.00280307
-4.34476e-05
-0.00286658
-2.62172e-05
-0.00291772
5.49883e-06
-0.00294147
5.39015e-05
-0.0029141
0.000130918
-0.0028086
0.000253598
-0.00258962
0.000438462
-0.00222876
0.00071266
-0.00172897
0.00109164
-0.001074
0.00144345
-4.28752e-05
0.00133699
0.00127715
0.000625998
0.00159486
-0.000651908
-0.00268336
-0.00789152
-0.0111493
-0.00682321
-0.00587833
-0.0056056
-0.00545819
-0.00526973
-0.00502741
-0.00473658
-0.00440514
-0.00406092
-0.00373957
-0.00346738
-0.00325008
-0.0030849
-0.00296537
-0.00288129
-0.00282309
-0.00278465
-0.00276279
-0.00275916
-0.00277252
-0.00279906
-0.00283457
-0.00287486
-0.00291499
-0.00294814
-0.00296429
-0.002949
-0.00288561
-0.00274554
-0.00248315
-0.00203628
-0.00131561
-0.00021642
0.00123395
0.00257754
0.00321012
0.00256506
)
;

boundaryField
{
    floor
    {
        type            calculated;
        value           nonuniform List<scalar> 
29
(
0
0
0
0
0
0
0
0
0
0
0
0
0
0
0
0
0
0
0
0
-4.98554e-06
-1.26525e-05
-1.91099e-05
-2.49854e-05
-2.04277e-06
-3.68212e-06
-1.05649e-05
-1.11912e-05
-1.01672e-05
)
;
    }
    ceiling
    {
        type            calculated;
        value           nonuniform List<scalar> 
43
(
-5.94261e-05
-5.71948e-05
-5.54052e-05
-2.83033e-05
-1.93361e-05
-1.55503e-05
-1.31903e-05
-1.15256e-05
-1.03692e-05
-9.60916e-06
-9.19615e-06
-9.09988e-06
-9.24879e-06
-9.52487e-06
-9.83743e-06
-1.01421e-05
-1.04205e-05
-1.0661e-05
-1.08499e-05
-1.09743e-05
-1.10273e-05
-1.1014e-05
-1.09499e-05
-1.08418e-05
-1.06954e-05
-1.05147e-05
-1.03028e-05
-1.00612e-05
-9.78938e-06
-9.48443e-06
-9.15295e-06
-8.79513e-06
-8.41109e-06
-7.99909e-06
-7.55485e-06
-6.91521e-06
-6.60595e-06
-6.57725e-06
-6.84092e-06
-6.49077e-06
6.39456e-06
3.95704e-06
-8.42705e-05
)
;
    }
    sWall
    {
        type            calculated;
        value           uniform -0.000279685;
    }
    nWall
    {
        type            calculated;
        value           nonuniform List<scalar> 6(-5.42257e-05 -6.47238e-05 -6.94195e-05 -8.48909e-05 -9.3433e-05 -0.000111816);
    }
    sideWalls
    {
        type            empty;
        value           nonuniform 0();
    }
    glass1
    {
        type            calculated;
        value           nonuniform List<scalar> 9(-5.97697e-05 -0.000160552 -0.000245253 -0.000317344 -0.000378571 -0.000430242 -0.000477413 -0.000534625 -0.000598585);
    }
    glass2
    {
        type            calculated;
        value           nonuniform List<scalar> 2(-0.00029319 -0.000325798);
    }
    sun
    {
        type            calculated;
        value           uniform 0;
    }
    heatsource1
    {
        type            calculated;
        value           nonuniform List<scalar> 3(2.05028e-07 2.04923e-07 2.04942e-07);
    }
    heatsource2
    {
        type            calculated;
        value           nonuniform List<scalar> 4(5.14113e-08 5.15259e-08 0 0);
    }
    Table_master
    {
        type            calculated;
        value           nonuniform List<scalar> 9(-1.53769e-07 -1.5386e-07 -1.53893e-07 -1.53914e-07 -1.53929e-07 -1.5394e-07 -1.53944e-07 -1.53937e-07 -1.53903e-07);
    }
    Table_slave
    {
        type            calculated;
        value           nonuniform List<scalar> 9(1.53627e-07 1.53649e-07 1.53625e-07 1.53607e-07 1.53603e-07 1.53606e-07 1.53626e-07 1.53676e-07 1.53767e-07);
    }
    inlet
    {
        type            calculated;
        value           uniform -0.00623359;
    }
    outlet
    {
        type            calculated;
        value           nonuniform List<scalar> 2(0.00823063 0.003315);
    }
}


// ************************************************************************* //
