/*--------------------------------*- C++ -*----------------------------------*\
  =========                 |
  \\      /  F ield         | OpenFOAM: The Open Source CFD Toolbox
   \\    /   O peration     | Website:  https://openfoam.org
    \\  /    A nd           | Version:  6
     \\/     M anipulation  |
\*---------------------------------------------------------------------------*/
FoamFile
{
    version     2.0;
    format      ascii;
    class       surfaceScalarField;
    location    "2900";
    object      phi;
}
// * * * * * * * * * * * * * * * * * * * * * * * * * * * * * * * * * * * * * //

dimensions      [1 0 -1 0 0 0 0];

internalField   nonuniform List<scalar> 
852
(
-0.00304105
0.00310085
-0.00412284
0.00108179
-0.00492614
0.000803305
-0.00553898
0.000612834
-0.00592962
0.000390641
-0.00607433
0.000144713
-0.00595216
-0.000122168
-0.0055528
-0.000399358
-0.00490259
-0.000650216
-0.0040669
-0.000835693
-0.00313641
-0.000930489
-0.00220719
-0.000929214
-0.0013641
-0.000843093
-0.000645925
-0.000718175
-0.000643862
-0.000810097
0.000813805
-0.000478602
-0.000331495
0.000188104
-0.000666706
0.000718045
-0.000529942
0.00107285
-0.000354802
0.00129519
-0.000222343
0.00141635
-0.00012116
0.0014759
-5.95525e-05
0.00150938
-3.34807e-05
0.00152995
-2.05654e-05
0.00154158
-1.16334e-05
0.00154576
-4.17718e-06
0.00154089
4.86657e-06
0.00151865
2.22396e-05
0.00145656
6.20957e-05
0.00131672
0.000139841
0.00108685
0.00022987
0.000803719
0.00028313
0.000808756
-0.00216463
0.00542615
-0.00321033
0.0021275
-0.00403182
0.0016248
-0.00463329
0.0012143
-0.00501661
0.000773958
-0.00516665
0.000294756
-0.00505988
-0.000228933
-0.0046925
-0.000766742
-0.00410304
-0.00123968
-0.00336331
-0.00157541
-0.00255989
-0.00173391
-0.00177291
-0.0017162
-0.00107376
-0.00154225
-0.000538856
-0.00125308
-0.000311048
-0.000871671
5.02506e-05
-0.00036135
5.01991e-05
0.000370077
0.000454396
0.000799471
-0.00076089
0.00106343
-0.000930665
0.00129106
-0.000757571
0.00146537
-0.000529109
0.00157011
-0.000327093
0.00158713
-0.000138175
0.00159133
-6.37577e-05
0.00159638
-3.85299e-05
0.00160066
-2.48399e-05
0.00160342
-1.44e-05
0.00160472
-5.47652e-06
0.00160378
5.80621e-06
0.00159712
2.89085e-05
0.00155516
0.000104053
0.00137523
0.000319764
0.00106657
0.000538534
0.000684976
0.000664724
0.00150648
-0.0015105
0.0071821
-0.00240881
0.00302582
-0.0031323
0.00234828
-0.00364205
0.00172405
-0.00396936
0.00110127
-0.00409325
0.000418638
-0.00397009
-0.000352086
-0.00359955
-0.00113729
-0.00304387
-0.00179536
-0.00238385
-0.00223544
-0.00169912
-0.00241864
-0.00104721
-0.00236811
-0.000475259
-0.00211419
-1.94925e-05
-0.00170884
0.000282194
-0.00117336
0.000437009
-0.000516165
0.000487208
0.00160095
-0.00113518
0.00182862
-0.000988556
0.00177989
-0.000881939
0.00176449
-0.000742164
0.00178315
-0.000547771
0.0018023
-0.00034624
0.00166428
0.00160067
0.0015623
0.00153761
0.00152336
0.00151804
0.001524
0.00155306
0.00165727
0.00135883
0.000618202
0.00100206
0.000895309
0.000571731
0.00109505
0.00209744
-0.00105
0.00854976
-0.00175826
0.00373408
-0.00222919
0.00281921
-0.00255288
0.00204774
-0.00274997
0.00129836
-0.00277894
0.000447608
-0.00257509
-0.000555932
-0.00217007
-0.0015423
-0.00165669
-0.00230874
-0.00111102
-0.00278111
-0.000590597
-0.00293906
-0.000120242
-0.00283846
0.000286326
-0.00252076
0.000627726
-0.00205024
0.000939193
-0.00148482
0.00130824
-0.000885214
0.00216406
-0.000368609
0.00261112
-0.000436814
0.0021865
-0.000710562
0.00204207
-0.000844127
0.00191543
-0.000755296
0.00180473
-0.000631469
0.00174072
-0.000483753
0.00170607
-0.000311596
0.00183402
-0.000128103
0.0019117
-7.78301e-05
0.00197207
-6.05249e-05
0.00201569
-4.37753e-05
0.00202757
-1.20352e-05
0.0019863
4.11191e-05
0.00186736
0.000118787
0.00163848
0.000228722
0.00124431
0.000394015
0.00110045
0.000762067
0.000785406
0.00121035
0.000301508
0.00157895
0.00242406
-0.000732111
0.00966086
-0.00126625
0.00426822
-0.00134939
0.00290236
-0.00138462
0.00208297
-0.00136507
0.00127881
-0.00118166
0.000264198
-0.000813055
-0.000924538
-0.000375332
-0.00198003
4.38331e-05
-0.00272791
0.000399507
-0.00313679
0.0006812
-0.00322075
0.00089446
-0.00305172
0.00106155
-0.00268785
0.0012074
-0.0021961
0.00136491
-0.00164234
0.00158074
-0.00110104
0.00189503
-0.000682895
0.00201108
-0.000552863
0.00191101
-0.00061049
0.0017186
-0.000651718
0.00155402
-0.000590717
0.00141717
-0.000494622
0.00132073
-0.000387309
0.00127955
-0.000270419
0.00132089
-0.000169443
0.00137003
-0.000126966
0.00142351
-0.000114011
0.00147748
-9.77396e-05
0.00152019
-5.47481e-05
0.00153126
3.00444e-05
0.00149034
0.00015971
0.0013857
0.00033336
0.00121886
0.000560853
0.00107031
0.000910621
0.00090507
0.00137559
0.000507029
0.00197699
0.000378738
0.00255235
-0.00111801
0.00149654
-0.00157814
0.000459929
-0.00152411
-0.00063513
0.0107268
-0.000993762
0.00462685
-0.000534147
0.00244274
-9.84556e-05
0.00164728
0.000293521
0.000886833
0.000805896
-0.000248178
0.00133135
-0.00145
0.00171493
-0.0023636
0.00193503
-0.00294801
0.00201286
-0.00321461
0.00198977
-0.00319766
0.00189526
-0.00295722
0.00176687
-0.00255946
0.00164153
-0.00207076
0.00155025
-0.00155105
0.00151445
-0.00106524
0.00152392
-0.00069237
0.00147674
-0.000505676
0.00133216
-0.000465913
0.00113343
-0.000452984
0.000955044
-0.000412335
0.000815821
-0.0003554
0.000723427
-0.000294914
0.000687678
-0.00023467
0.000707978
-0.000189742
0.000757945
-0.000176933
0.000824854
-0.00018092
0.000903379
-0.000176265
0.000987486
-0.000138856
0.00106262
-4.50897e-05
0.00111037
0.000111963
0.00112899
0.000314734
0.00112677
0.000563077
0.00115268
0.000884711
0.00126095
0.00126733
0.00145548
0.00178246
0.00195696
0.00205088
0.00223718
0.00121632
0.0018549
0.000842208
0.000395515
-0.000661925
0.0118667
-0.00051396
0.00447888
0.000719694
0.00120909
0.00164506
0.000721911
0.00250376
2.81415e-05
0.00329626
-0.00104068
0.00378093
-0.00193466
0.00395715
-0.00253983
0.00387119
-0.00286204
0.00358746
-0.00293088
0.0031774
-0.0027876
0.00270448
-0.0024843
0.00222628
-0.00208126
0.00178993
-0.00163441
0.00142443
-0.00118555
0.00114302
-0.000783835
0.000937457
-0.00048681
0.000759645
-0.000327863
0.000571952
-0.000278221
0.00038536
-0.000266391
0.000227163
-0.000254139
0.000109813
-0.000238049
3.72554e-05
-0.000222357
1.26729e-05
-0.000210087
3.15741e-05
-0.000208643
7.83963e-05
-0.000223755
0.000142675
-0.000245199
0.000223098
-0.000256688
0.000324239
-0.000239996
0.000451778
-0.000172629
0.0005899
-2.61583e-05
0.000727344
0.000177289
0.000878733
0.000411689
0.00108451
0.000678929
0.00140063
0.000951212
0.0019015
0.00128158
0.00265149
0.00130089
0.0032329
0.000634907
0.00330243
0.000772682
0.00376783
0.00277171
0.00963033
0.0035532
0.0036974
0.00417983
0.000582451
0.00519053
-0.000288783
0.00611705
-0.000898381
0.00657592
-0.00149955
0.00659165
-0.00195039
0.00623686
-0.00218505
0.00560145
-0.00222663
0.00478541
-0.00211484
0.00388742
-0.00188962
0.00298981
-0.00158668
0.002159
-0.00125046
0.00144172
-0.000917128
0.000857156
-0.000600983
0.000414033
-0.000340712
0.000104288
-0.000177065
-0.000114472
-0.000109103
-0.00028747
-0.000105223
-0.000431735
-0.000122126
-0.000546752
-0.000139121
-0.00063112
-0.000153682
-0.000685334
-0.000168142
-0.000710611
-0.000184811
-0.000712128
-0.000207126
-0.000699969
-0.000235914
-0.000680179
-0.000264988
-0.000651655
-0.000285213
-0.00060513
-0.000286521
-0.000520617
-0.000257142
-0.000366311
-0.000180464
-0.000159688
-2.93339e-05
8.14195e-05
0.000170581
0.000380003
0.000380345
0.000748165
0.000583051
0.00124386
0.000785888
0.00176324
0.000781509
0.00185424
0.000543909
0.000828396
0.00179852
0.00489214
0.0102234
0.0139169
0.0129814
0.00151797
0.0123594
0.000333219
0.0116024
-0.000141393
0.0105582
-0.000455348
0.00924611
-0.000638301
0.00777884
-0.00071778
0.00625797
-0.000705755
0.00477086
-0.000627736
0.00339621
-0.000514965
0.0021832
-0.000373677
0.00116472
-0.00023197
0.000348609
-0.00010102
-0.000256735
4.36106e-06
-0.000649063
5.16157e-05
-0.000878745
5.26175e-05
-0.0010219
3.4054e-05
-0.00113158
4.45333e-06
-0.00122634
-2.73626e-05
-0.0013079
-5.75619e-05
-0.00137713
-8.44525e-05
-0.00143566
-0.000109615
-0.00148684
-0.000133627
-0.00153677
-0.000157201
-0.0015939
-0.000178785
-0.00166602
-0.000192864
-0.0017604
-0.000190836
-0.00188533
-0.000161585
-0.00205148
-9.09951e-05
-0.00226617
3.42308e-05
-0.0025167
0.000221193
-0.00283254
0.000486424
-0.0033007
0.000848501
-0.00402264
0.00130499
-0.00506109
0.00182434
-0.00653544
0.00225585
-0.0083614
0.00236987
-0.00804705
0.00148418
-0.00282803
0.00437551
0.00337866
0.00335878
0.00134996
0.00364978
-0.000432401
0.00358664
-0.000392208
0.00312736
-0.000179018
0.0024402
-3.06161e-05
0.00163743
9.70117e-05
0.000812586
0.000197107
4.12253e-05
0.000256396
-0.000606042
0.00027359
-0.00109031
0.000252297
-0.00141808
0.000226749
-0.00160925
0.000195529
-0.00171361
0.000155976
-0.00177804
0.000117047
-0.00182726
8.32749e-05
-0.00187611
5.3304e-05
-0.00193065
2.71812e-05
-0.00199152
3.30755e-06
-0.00205611
-1.98682e-05
-0.00212353
-4.21876e-05
-0.00219674
-6.04156e-05
-0.00227957
-7.43782e-05
-0.0023754
-8.29515e-05
-0.00248527
-8.29919e-05
-0.00260674
-6.93717e-05
-0.00273244
-3.5886e-05
-0.00284938
2.59525e-05
-0.00294881
0.000133654
-0.00303295
0.000305334
-0.00310871
0.000562182
-0.00318159
0.000921386
-0.00324984
0.00137324
-0.00325679
0.0018313
-0.00309599
0.00209505
-0.00211541
0.00138929
-0.000204573
-0.000426666
-0.00294822
-0.000789172
0.00425227
-0.000343839
0.000904625
-0.00102233
0.000246092
-0.00154299
0.000128448
-0.00189667
0.000174666
-0.00215955
0.000232262
-0.00234587
0.000283329
-0.00247425
0.000325487
-0.00255671
0.000338859
-0.00259906
0.000315943
-0.00261369
0.000266923
-0.00260014
0.000213198
-0.00256685
0.000162242
-0.00252845
0.000117574
-0.00249436
8.29611e-05
-0.00246871
5.76196e-05
-0.00245388
3.84758e-05
-0.00244967
2.29713e-05
-0.00245569
9.32699e-06
-0.00246998
-5.57982e-06
-0.00249318
-1.89796e-05
-0.00252495
-2.86534e-05
-0.00256488
-3.44425e-05
-0.00261197
-3.58644e-05
-0.00266361
-3.13533e-05
-0.00271485
-1.81318e-05
-0.00275821
7.47835e-06
-0.00278032
4.80631e-05
-0.00276027
0.000113599
-0.00267393
0.000218993
-0.00248969
0.00037795
-0.00217988
0.000611573
-0.00173887
0.00093223
-0.00113416
0.00122658
-2.9444e-05
0.000990339
0.0018372
-0.000477352
0.0034688
-0.00205826
0.000612122
-0.00788084
-0.0111399
-0.00683239
-0.00589963
-0.00563435
-0.00549049
-0.00530274
-0.00505906
-0.00476545
-0.00443044
-0.00408246
-0.00375751
-0.00348144
-0.00325886
-0.00308697
-0.00295949
-0.00286638
-0.00279841
-0.00274941
-0.00271579
-0.00269572
-0.00269055
-0.00269881
-0.00271682
-0.00274074
-0.00276624
-0.00278743
-0.00279561
-0.00277845
-0.00272099
-0.00259832
-0.00237062
-0.00198433
-0.00136483
-0.000425111
0.000808432
0.00180546
0.00133509
-0.000717035
)
;

boundaryField
{
    floor
    {
        type            calculated;
        value           nonuniform List<scalar> 
29
(
0
0
0
0
0
0
0
0
0
0
0
0
0
0
0
0
0
0
0
0
-5.03762e-06
-1.27519e-05
-1.92223e-05
-2.51152e-05
-2.06305e-06
-3.70762e-06
-1.0668e-05
-1.13734e-05
-1.02477e-05
)
;
    }
    ceiling
    {
        type            calculated;
        value           nonuniform List<scalar> 
43
(
-5.92923e-05
-5.70645e-05
-5.52778e-05
-2.81314e-05
-1.91877e-05
-1.54189e-05
-1.30753e-05
-1.14249e-05
-1.02793e-05
-9.52593e-06
-9.11434e-06
-9.01205e-06
-9.14165e-06
-9.38355e-06
-9.65195e-06
-9.90813e-06
-1.01416e-05
-1.03501e-05
-1.05255e-05
-1.06558e-05
-1.07336e-05
-1.07538e-05
-1.07214e-05
-1.06423e-05
-1.05205e-05
-1.03624e-05
-1.017e-05
-9.94624e-06
-9.68694e-06
-9.39254e-06
-9.06894e-06
-8.71521e-06
-8.33495e-06
-7.9264e-06
-7.49134e-06
-6.96282e-06
-6.68702e-06
-6.98609e-06
-6.13482e-06
-3.81862e-06
6.30612e-06
3.88017e-06
-8.44437e-05
)
;
    }
    sWall
    {
        type            calculated;
        value           uniform -0.000279543;
    }
    nWall
    {
        type            calculated;
        value           nonuniform List<scalar> 6(-5.42353e-05 -6.47262e-05 -6.9886e-05 -8.43738e-05 -9.15484e-05 -0.000101095);
    }
    sideWalls
    {
        type            empty;
        value           nonuniform 0();
    }
    glass1
    {
        type            calculated;
        value           nonuniform List<scalar> 9(-5.98046e-05 -0.000160668 -0.000245462 -0.000317658 -0.000378992 -0.000430761 -0.000478033 -0.000535333 -0.000599371);
    }
    glass2
    {
        type            calculated;
        value           nonuniform List<scalar> 2(-0.000295917 -0.000326888);
    }
    sun
    {
        type            calculated;
        value           uniform 0;
    }
    heatsource1
    {
        type            calculated;
        value           nonuniform List<scalar> 3(2.05042e-07 2.04926e-07 2.04945e-07);
    }
    heatsource2
    {
        type            calculated;
        value           nonuniform List<scalar> 4(5.14195e-08 5.15273e-08 0 0);
    }
    Table_master
    {
        type            calculated;
        value           nonuniform List<scalar> 9(-1.53794e-07 -1.53885e-07 -1.53918e-07 -1.5394e-07 -1.53955e-07 -1.53966e-07 -1.5397e-07 -1.53965e-07 -1.53932e-07);
    }
    Table_slave
    {
        type            calculated;
        value           nonuniform List<scalar> 9(1.53658e-07 1.53684e-07 1.53664e-07 1.5365e-07 1.53646e-07 1.53649e-07 1.53668e-07 1.53715e-07 1.53802e-07);
    }
    inlet
    {
        type            calculated;
        value           uniform -0.0062362;
    }
    outlet
    {
        type            calculated;
        value           nonuniform List<scalar> 2(0.00821968 0.00331616);
    }
}


// ************************************************************************* //
