// -*- C++ -*-
// File generated by PyFoam - sorry for the ugliness

FoamFile
{
 version 2.0;
 format ascii;
 class volVectorField;
 location "2900";
 object U;
}

dimensions [ 0 1 -1 0 0 0 0 ];

internalField nonuniform List<vector> 459
(
  (0.0332823 0.0882626 0)
  (-0.171737 0.026504 0)
  (-0.196963 0.0178684 0)
  (-0.227688 0.011878 0)
  (-0.249295 0.00532619 0)
  (-0.260816 -0.00152641 0)
  (-0.260794 -0.00868632 0)
  (-0.24859 -0.0161113 0)
  (-0.225157 -0.0230486 0)
  (-0.192565 -0.0283985 0)
  (-0.154273 -0.0313368 0)
  (-0.114063 -0.0315792 0)
  (-0.0755026 -0.0294703 0)
  (-0.0436404 -0.0264258 0)
  (-0.0335749 -0.0242174 0)
  (-0.00306358 0.00885024 0)
  (-0.028638 -0.0193539 0)
  (-0.00349493 -0.0293008 0)
  (0.0208522 -0.0218368 0)
  (0.0378916 -0.0147151 0)
  (0.0509032 -0.00940681 0)
  (0.0587613 -0.00558661 0)
  (0.0627246 -0.00359035 0)
  (0.0645119 -0.00274066 0)
  (0.0654336 -0.00233496 0)
  (0.0660206 -0.00207065 0)
  (0.066348 -0.00185647 0)
  (0.0663535 -0.00160798 0)
  (0.065835 -0.00114635 0)
  (0.0642271 -9.06773e-05 0)
  (0.0603217 0.00209168 0)
  (0.052807 0.0043721 0)
  (0.0463091 0.00621963 0)
  (-0.0150059 0.0227733 0)
  (0.209616 0.180332 0)
  (-0.158773 0.0697568 0)
  (-0.157457 0.0529914 0)
  (-0.188879 0.0403592 0)
  (-0.210073 0.026189 0)
  (-0.221687 0.0105476 0)
  (-0.222209 -0.00665126 0)
  (-0.210996 -0.0244917 0)
  (-0.189572 -0.0405125 0)
  (-0.160335 -0.0522833 0)
  (-0.126766 -0.0582704 0)
  (-0.0923182 -0.0582199 0)
  (-0.0601243 -0.0527385 0)
  (-0.0335832 -0.0433814 0)
  (-0.0169484 -0.032021 0)
  (-0.00331769 -0.0140885 0)
  (-0.00380261 0.0170065 0)
  (0.072882 0.0368284 0)
  (0.0305831 -0.0200131 0)
  (0.0382511 -0.0335408 0)
  (0.0500911 -0.0290511 0)
  (0.059313 -0.0202646 0)
  (0.0656016 -0.0120994 0)
  (0.0681887 -0.00506231 0)
  (0.0686036 -0.00114793 0)
  (0.0685086 0.00049326 0)
  (0.0685893 0.00122923 0)
  (0.068766 0.00168057 0)
  (0.0688909 0.00205678 0)
  (0.0689203 0.00253146 0)
  (0.0688031 0.00345068 0)
  (0.0679987 0.00573611 0)
  (0.0640155 0.0120982 0)
  (0.0539552 0.0173821 0)
  (0.0502197 0.0208508 0)
  (-0.0569095 0.049131 0)
  (0.370782 0.269322 0)
  (-0.173764 0.110489 0)
  (-0.117714 0.0852339 0)
  (-0.147588 0.0629459 0)
  (-0.166064 0.0397357 0)
  (-0.176312 0.0144697 0)
  (-0.175801 -0.0132518 0)
  (-0.163747 -0.0414641 0)
  (-0.142846 -0.065829 0)
  (-0.116102 -0.0827009 0)
  (-0.0870228 -0.0902589 0)
  (-0.0582944 -0.0888358 0)
  (-0.0319512 -0.079542 0)
  (-0.010067 -0.0642543 0)
  (0.00632384 -0.0434697 0)
  (0.0175742 -0.0179664 0)
  (0.023381 0.018809 0)
  (0.120576 -0.0357924 0)
  (0.0790538 -0.043626 0)
  (0.0730107 -0.0417832 0)
  (0.0747948 -0.034459 0)
  (0.0761255 -0.0250552 0)
  (0.076987 -0.0169323 0)
  (0.0752885 -0.0135317 0)
  (0.0707484 -0.00950222 0)
  (0.0675753 -0.00731246 0)
  (0.066149 -0.00606087 0)
  (0.0655304 -0.00525974 0)
  (0.0652185 -0.00470199 0)
  (0.0652248 -0.0041926 0)
  (0.0660199 -0.00335363 0)
  (0.06882 -0.000169485 0)
  (0.066474 0.017348 0)
  (0.0521426 0.0295189 0)
  (0.0569669 0.0373557 0)
  (-0.0944849 0.0758138 0)
  (0.515586 0.340652 0)
  (-0.206643 0.146427 0)
  (-0.0765124 0.112299 0)
  (-0.103768 0.0816837 0)
  (-0.116467 0.0516086 0)
  (-0.1224 0.0181086 0)
  (-0.11713 -0.0200516 0)
  (-0.101965 -0.0585619 0)
  (-0.0812556 -0.0899196 0)
  (-0.0581395 -0.1101 0)
  (-0.0355731 -0.117793 0)
  (-0.0147198 -0.114571 0)
  (0.00407785 -0.101734 0)
  (0.0196704 -0.082212 0)
  (0.0332136 -0.0581519 0)
  (0.0480217 -0.030902 0)
  (0.0704918 -0.000802299 0)
  (0.102683 0.0136927 0)
  (0.108588 -0.0283381 0)
  (0.0931322 -0.0379117 0)
  (0.0837248 -0.0354005 0)
  (0.0789475 -0.0298445 0)
  (0.0755738 -0.0225397 0)
  (0.0736942 -0.0136565 0)
  (0.0753199 -0.00799162 0)
  (0.0798589 -0.00610871 0)
  (0.0835502 -0.00503577 0)
  (0.0858851 -0.00421516 0)
  (0.0871373 -0.00322496 0)
  (0.0866896 -0.00178748 0)
  (0.08355 0.000298466 0)
  (0.0764712 0.00333063 0)
  (0.0624613 0.00788923 0)
  (0.0507998 0.0286635 0)
  (0.0383155 0.0456246 0)
  (0.0607008 0.0583034 0)
  (-0.139763 0.0983722 0)
  (0.639744 0.39576 0)
  (-0.247129 0.175651 0)
  (-0.0367636 0.127273 0)
  (-0.0579885 0.0917445 0)
  (-0.0621037 0.0575341 0)
  (-0.0596433 0.0174346 0)
  (-0.0427475 -0.0308877 0)
  (-0.0234058 -0.076867 0)
  (-0.00472763 -0.111004 0)
  (0.0117729 -0.130727 0)
  (0.0244219 -0.135707 0)
  (0.0343776 -0.129596 0)
  (0.042044 -0.114778 0)
  (0.048307 -0.0939339 0)
  (0.0543823 -0.069721 0)
  (0.0621667 -0.0452731 0)
  (0.0743514 -0.0265342 0)
  (0.0850512 -0.0251187 0)
  (0.0860274 -0.0334079 0)
  (0.0789256 -0.0335305 0)
  (0.070169 -0.0294156 0)
  (0.0632766 -0.0243609 0)
  (0.0582539 -0.0187436 0)
  (0.0554055 -0.0125969 0)
  (0.0552654 -0.00681512 0)
  (0.0574709 -0.0040774 0)
  (0.0599516 -0.00303091 0)
  (0.0623025 -0.00213501 0)
  (0.0644162 -0.000369352 0)
  (0.0658629 0.00275815 0)
  (0.0654575 0.00732996 0)
  (0.0626432 0.0135116 0)
  (0.0566879 0.0219928 0)
  (0.0495872 0.0378555 0)
  (0.0382368 0.0569805 0)
  (0.0681222 0.0781282 0)
  (-0.0381863 0.11036 0)
  (0.0475542 0.0249983 0)
  (-0.0691471 -0.0375627 0)
  (-0.286059 -0.0611459 0)
  (0.729093 0.441443 0)
  (-0.286344 0.194853 0)
  (-0.00691163 0.121504 0)
  (-0.0096336 0.0896061 0)
  (-0.000700843 0.0540495 0)
  (0.0197958 0.00489216 0)
  (0.0494845 -0.0507056 0)
  (0.0692033 -0.0947605 0)
  (0.0814676 -0.124236 0)
  (0.0869953 -0.139185 0)
  (0.0871764 -0.141008 0)
  (0.0837919 -0.132308 0)
  (0.0783469 -0.115901 0)
  (0.072429 -0.0947077 0)
  (0.0674804 -0.0714733 0)
  (0.0647616 -0.0492105 0)
  (0.0649962 -0.0319673 0)
  (0.0650994 -0.0247241 0)
  (0.0611465 -0.0242995 0)
  (0.0533119 -0.0237726 0)
  (0.044644 -0.021312 0)
  (0.0375393 -0.0180056 0)
  (0.0325076 -0.0143919 0)
  (0.0298094 -0.0106228 0)
  (0.0295327 -0.00747226 0)
  (0.0312232 -0.00631989 0)
  (0.0338337 -0.00616432 0)
  (0.0369616 -0.00570126 0)
  (0.0404157 -0.0038861 0)
  (0.0440458 0.000136035 0)
  (0.0470383 0.00647894 0)
  (0.0485755 0.0148156 0)
  (0.0489106 0.0254118 0)
  (0.0496025 0.0401192 0)
  (0.0476494 0.0587016 0)
  (0.0763018 0.0834376 0)
  (0.0478929 0.102826 0)
  (0.0976009 0.0684236 0)
  (0.122256 0.0447785 0)
  (-0.138292 -0.00974476 0)
  (0.785973 0.483215 0)
  (-0.304176 0.179266 0)
  (0.0241065 0.0652471 0)
  (0.0578783 0.0549795 0)
  (0.0841716 0.028937 0)
  (0.128371 -0.025285 0)
  (0.156983 -0.0735935 0)
  (0.170721 -0.107849 0)
  (0.171635 -0.127989 0)
  (0.162427 -0.135418 0)
  (0.146269 -0.131999 0)
  (0.126267 -0.120186 0)
  (0.105111 -0.102758 0)
  (0.0850416 -0.0823763 0)
  (0.0676457 -0.0612325 0)
  (0.0538968 -0.0417317 0)
  (0.0440186 -0.0267892 0)
  (0.0363844 -0.0187965 0)
  (0.0287158 -0.016224 0)
  (0.0204851 -0.0152917 0)
  (0.0128156 -0.0139704 0)
  (0.00677761 -0.0123609 0)
  (0.00267979 -0.0107447 0)
  (0.00064866 -0.00924564 0)
  (0.000638098 -0.00834299 0)
  (0.00217634 -0.00856348 0)
  (0.00458926 -0.00924784 0)
  (0.00762869 -0.0094662 0)
  (0.0113454 -0.00830038 0)
  (0.0158961 -0.00470244 0)
  (0.0224377 0.00229338 0)
  (0.0285574 0.0114227 0)
  (0.0345694 0.022055 0)
  (0.0424261 0.0349374 0)
  (0.0504518 0.0498522 0)
  (0.0766857 0.0698516 0)
  (0.0896173 0.0775825 0)
  (0.126437 0.0509245 0)
  (0.168707 0.0418813 0)
  (-0.0321959 0.0953181 0)
  (0.893964 0.482614 0)
  (-0.056097 0.157634 0)
  (0.119651 -0.0236326 0)
  (0.208223 -0.0598282 0)
  (0.254316 -0.0733984 0)
  (0.279169 -0.0900804 0)
  (0.287826 -0.105444 0)
  (0.279779 -0.115107 0)
  (0.25725 -0.117948 0)
  (0.224517 -0.114194 0)
  (0.186302 -0.104701 0)
  (0.146707 -0.0907241 0)
  (0.109014 -0.074115 0)
  (0.075533 -0.0566733 0)
  (0.0474635 -0.0396014 0)
  (0.0255761 -0.024614 0)
  (0.00997387 -0.0140277 0)
  (-0.000879615 -0.00883286 0)
  (-0.00893967 -0.00761445 0)
  (-0.0157002 -0.00770342 0)
  (-0.0213307 -0.0078168 0)
  (-0.0256307 -0.00786174 0)
  (-0.0285896 -0.00797027 0)
  (-0.0302356 -0.00826236 0)
  (-0.0307143 -0.00895566 0)
  (-0.0304071 -0.010141 0)
  (-0.0297153 -0.0114856 0)
  (-0.0287494 -0.0125106 0)
  (-0.0273291 -0.0127008 0)
  (-0.0250109 -0.011454 0)
  (-0.0207112 -0.00799963 0)
  (-0.0109707 -0.00167241 0)
  (-0.00159337 0.00638475 0)
  (0.0102071 0.0146218 0)
  (0.0226224 0.021589 0)
  (0.0452087 0.0299244 0)
  (0.0653775 0.0235065 0)
  (0.0845337 -0.00278232 0)
  (0.145102 0.0511665 0)
  (-0.474468 0.217986 0)
  (1.0463 0.426973 0)
  (0.49564 0.278749 0)
  (0.514793 0.172871 0)
  (0.54987 0.0945869 0)
  (0.529763 0.0405649 0)
  (0.481923 -0.00217269 0)
  (0.426644 -0.0333489 0)
  (0.366238 -0.0522431 0)
  (0.301552 -0.0601932 0)
  (0.235981 -0.0597435 0)
  (0.173624 -0.0536049 0)
  (0.117373 -0.0437687 0)
  (0.0694686 -0.0324128 0)
  (0.0303756 -0.021211 0)
  (-0.000726279 -0.0109981 0)
  (-0.021937 -0.00412137 0)
  (-0.0339883 -0.00120906 0)
  (-0.0413238 -0.000674126 0)
  (-0.0464247 -0.00139387 0)
  (-0.05079 -0.00247261 0)
  (-0.0545999 -0.00354758 0)
  (-0.0578383 -0.00460287 0)
  (-0.0605522 -0.00570258 0)
  (-0.0628427 -0.00688118 0)
  (-0.0649287 -0.00817906 0)
  (-0.0671559 -0.00953001 0)
  (-0.0698851 -0.0106731 0)
  (-0.0734157 -0.0112198 0)
  (-0.0780528 -0.010677 0)
  (-0.0842248 -0.00841385 0)
  (-0.0925155 -0.00366935 0)
  (-0.102861 0.00411801 0)
  (-0.113599 0.0146093 0)
  (-0.129332 0.0279004 0)
  (-0.154135 0.0438078 0)
  (-0.190142 0.0608115 0)
  (-0.241868 0.0744874 0)
  (-0.30359 0.082641 0)
  (-0.381106 0.0860932 0)
  (-0.655337 0.0802116 0)
  (-0.180171 -0.0205673 0)
  (0.100245 -0.0357825 0)
  (0.177112 -0.0552458 0)
  (0.164171 -0.0477244 0)
  (0.14492 -0.0345748 0)
  (0.120808 -0.0226208 0)
  (0.0888553 -0.0124075 0)
  (0.0530324 -0.00442881 0)
  (0.018182 0.00106849 0)
  (-0.0147037 0.00473519 0)
  (-0.0383086 0.00605062 0)
  (-0.0555028 0.00617153 0)
  (-0.0664412 0.00522104 0)
  (-0.0721306 0.0031461 0)
  (-0.0753463 0.000678408 0)
  (-0.077555 -0.00183945 0)
  (-0.0795937 -0.00438001 0)
  (-0.0817695 -0.00675979 0)
  (-0.084249 -0.00879714 0)
  (-0.0869774 -0.0102891 0)
  (-0.0898037 -0.0113548 0)
  (-0.092784 -0.0120674 0)
  (-0.0960959 -0.0124646 0)
  (-0.0999229 -0.0124961 0)
  (-0.104376 -0.0119655 0)
  (-0.109429 -0.0105311 0)
  (-0.114871 -0.00773624 0)
  (-0.120285 -0.00305958 0)
  (-0.125051 0.00386518 0)
  (-0.128701 0.013304 0)
  (-0.131614 0.0261776 0)
  (-0.134062 0.0429913 0)
  (-0.136847 0.063148 0)
  (-0.140128 0.0835206 0)
  (-0.140058 0.0958246 0)
  (-0.117884 0.0855888 0)
  (-0.0419179 0.0285095 0)
  (-0.209351 -0.186845 0)
  (0.0360787 0.198001 0)
  (0.0136419 0.0637339 0)
  (-0.0320674 0.0117573 0)
  (-0.0557141 0.0109661 0)
  (-0.0740091 0.0170486 0)
  (-0.0874948 0.0216347 0)
  (-0.0965456 0.0254148 0)
  (-0.103322 0.0285599 0)
  (-0.108162 0.030491 0)
  (-0.111334 0.0309476 0)
  (-0.112618 0.0304173 0)
  (-0.112543 0.0301142 0)
  (-0.11134 0.0302092 0)
  (-0.109601 0.0307597 0)
  (-0.107949 0.0319952 0)
  (-0.106625 0.0338251 0)
  (-0.105752 0.0358546 0)
  (-0.105355 0.0375995 0)
  (-0.105411 0.0385845 0)
  (-0.105826 0.0383675 0)
  (-0.106627 0.037226 0)
  (-0.107803 0.0356684 0)
  (-0.109353 0.0338025 0)
  (-0.111251 0.031714 0)
  (-0.113429 0.0295103 0)
  (-0.115749 0.0273031 0)
  (-0.117965 0.0251757 0)
  (-0.119597 0.023384 0)
  (-0.119848 0.0231651 0)
  (-0.11755 0.0257099 0)
  (-0.111254 0.0320387 0)
  (-0.099764 0.0430673 0)
  (-0.0832026 0.0586426 0)
  (-0.0630842 0.0747941 0)
  (-0.0423634 0.0820076 0)
  (0.039585 0.0328365 0)
  (0.150403 -0.058872 0)
  (-0.0518048 -0.0627542 0)
  (-0.0916452 -0.346679 0)
  (-0.44688 -0.138592 0)
  (-0.333658 0.0441914 0)
  (-0.291915 -0.0445235 0)
  (-0.251135 -0.0510536 0)
  (-0.239896 -0.0437123 0)
  (-0.231942 -0.036734 0)
  (-0.222692 -0.0323433 0)
  (-0.211105 -0.0301414 0)
  (-0.197456 -0.0302359 0)
  (-0.182723 -0.0331559 0)
  (-0.168306 -0.0388927 0)
  (-0.155427 -0.0466636 0)
  (-0.144699 -0.055187 0)
  (-0.136208 -0.0639353 0)
  (-0.129799 -0.0726882 0)
  (-0.125099 -0.0811277 0)
  (-0.121664 -0.0889027 0)
  (-0.11916 -0.0956231 0)
  (-0.117375 -0.100857 0)
  (-0.116218 -0.104248 0)
  (-0.115694 -0.105588 0)
  (-0.115788 -0.105058 0)
  (-0.116393 -0.103225 0)
  (-0.117346 -0.10025 0)
  (-0.118481 -0.0962294 0)
  (-0.11958 -0.0911639 0)
  (-0.120334 -0.0849498 0)
  (-0.120343 -0.0773368 0)
  (-0.119076 -0.0682105 0)
  (-0.11557 -0.058133 0)
  (-0.107993 -0.0470285 0)
  (-0.093762 -0.0345802 0)
  (-0.0707306 -0.0200878 0)
  (-0.0393701 -0.00306159 0)
  (0.00554426 0.0160413 0)
  (0.0466882 0.00785402 0)
  (0.107644 -0.0467481 0)
  (0.119289 -0.0880714 0)
  (-0.517234 0.0111509 0)
)
;

boundaryField
{
  floor
  {
    type noSlip;
  }
  ceiling
  {
    type noSlip;
  }
  sWall
  {
    type noSlip;
  }
  nWall
  {
    type noSlip;
  }
  sideWalls
  {
    type empty;
  }
  glass1
  {
    type noSlip;
  }
  glass2
  {
    type noSlip;
  }
  sun
  {
    type noSlip;
  }
  heatsource1
  {
    type noSlip;
  }
  heatsource2
  {
    type noSlip;
  }
  Table_master
  {
    type noSlip;
  }
  Table_slave
  {
    type noSlip;
  }
  inlet
  {
    type fixedValue;
    value uniform (0.277164 -0.114805 0);
  }
  outlet
  {
    type zeroGradient;
  }
} 	// ************************************************************************* //

