/*--------------------------------*- C++ -*----------------------------------*\
  =========                 |
  \\      /  F ield         | OpenFOAM: The Open Source CFD Toolbox
   \\    /   O peration     | Website:  https://openfoam.org
    \\  /    A nd           | Version:  6
     \\/     M anipulation  |
\*---------------------------------------------------------------------------*/
FoamFile
{
    version     2.0;
    format      ascii;
    class       volScalarField;
    location    "200";
    object      alphat;
}
// * * * * * * * * * * * * * * * * * * * * * * * * * * * * * * * * * * * * * //

dimensions      [1 -1 -1 0 0 0 0];

internalField   nonuniform List<scalar> 
459
(
0.000884584
0.000926391
0.000915582
0.000945232
0.000970406
0.000991536
0.0010096
0.00102558
0.00104048
0.00105494
0.00106512
0.00106991
0.00106941
0.00106625
0.00106208
0.000807498
0.00075209
0.000708176
0.000676153
0.000650679
0.000627016
0.000602031
0.000578399
0.000556083
0.000534915
0.00051482
0.000495709
0.000477435
0.000459746
0.000442198
0.000424084
0.000404075
0.000389435
0.000357539
0.00133132
0.00216001
0.00184867
0.00214584
0.00230488
0.0024723
0.0026379
0.00278754
0.00290061
0.00295923
0.00297267
0.00290834
0.00271978
0.00234507
0.00173137
0.00109223
0.00101919
0.00095109
0.00138501
0.00166921
0.00189028
0.00202123
0.00201532
0.00174314
0.00156279
0.00141788
0.00129662
0.00119159
0.00109799
0.00101125
0.000925748
0.000837079
0.000757852
0.000686519
0.000811361
0.0004643
0.00174036
0.00320365
0.00201917
0.00297969
0.00321547
0.00338064
0.00350693
0.00360304
0.00367522
0.00371915
0.00374411
0.00372041
0.0036092
0.00336499
0.00293263
0.00224744
0.00119525
0.00107151
0.00225229
0.00278123
0.00303798
0.00310229
0.00273506
0.000747348
0.000663884
0.000600691
0.000551853
0.000513174
0.000481842
0.000456132
0.000435276
0.000419794
0.000474274
0.000547311
0.000917867
0.000545962
0.00216493
0.00481383
0.00194908
0.00329753
0.00366441
0.00378183
0.00383254
0.00385491
0.003874
0.00389801
0.00393089
0.0039492
0.00392104
0.00381464
0.00359182
0.00318193
0.0024221
0.00120906
0.00282883
0.00341272
0.00358653
0.0036486
0.00361348
0.00311526
0.000808507
0.000766694
0.000748223
0.000737061
0.000723894
0.000702907
0.00067735
0.000649199
0.000613986
0.000575802
0.000572249
0.00111322
0.00061
0.00260262
0.00698865
0.00237741
0.00310311
0.00382231
0.00393796
0.0039354
0.00390046
0.00387952
0.00389754
0.00395004
0.00401407
0.00404485
0.00400074
0.00384659
0.00361134
0.00349954
0.00371345
0.00380314
0.00383941
0.00378919
0.00376782
0.00376669
0.00368957
0.00330986
0.00323641
0.00321556
0.00317885
0.00309993
0.00296362
0.00270076
0.00232604
0.00188684
0.00142424
0.0010307
0.00107459
0.00076554
0.000800455
0.000947004
0.00105306
0.00305458
0.00934774
0.00412162
0.00271346
0.00354452
0.00387542
0.00394588
0.00391589
0.00385517
0.00383583
0.00392076
0.00403523
0.0041194
0.0041223
0.00396742
0.00360911
0.00327889
0.00362308
0.00394083
0.0039118
0.00378933
0.00373017
0.00374688
0.00379102
0.0038137
0.00384476
0.00384746
0.00381031
0.0037331
0.00362086
0.0034516
0.00314748
0.00271173
0.00216501
0.001624
0.00116205
0.000969701
0.000917112
0.00138625
0.00110229
0.0035108
0.0112847
0.00759343
0.00396613
0.0029671
0.00302896
0.00340335
0.00372287
0.00393204
0.00380883
0.00392836
0.00406037
0.00416683
0.00420732
0.00408533
0.00365595
0.00307093
0.00345143
0.00400893
0.00396393
0.00379896
0.00371848
0.00372667
0.00377439
0.00382265
0.00384884
0.00383379
0.00378474
0.00371669
0.00364727
0.00358679
0.00342283
0.00307588
0.00258223
0.00208527
0.00158048
0.00131729
0.00131419
0.00145854
0.00125351
0.00362607
0.0111942
0.00925936
0.00738542
0.00548094
0.00419936
0.00368356
0.00368205
0.00389673
0.00396484
0.00403088
0.00411595
0.00420075
0.00423975
0.00412761
0.00367474
0.00292692
0.00329448
0.00409321
0.00405159
0.00385929
0.00376367
0.0037428
0.00374286
0.00373056
0.00369026
0.00362258
0.0035443
0.00348301
0.00346536
0.00350832
0.00357819
0.00339087
0.00298885
0.00264624
0.00252319
0.00280225
0.00374727
0.00505042
0.00195337
0.00355679
0.00432324
0.00494485
0.00518711
0.00510105
0.00474311
0.00437731
0.00414737
0.00405014
0.00402624
0.00407035
0.00414706
0.00421759
0.00423471
0.00409412
0.00357274
0.0026764
0.00313234
0.00423546
0.00418812
0.00397358
0.00386577
0.00380629
0.00374288
0.00365192
0.00352515
0.00336795
0.00319741
0.00303523
0.00289744
0.00278805
0.00270115
0.00263365
0.0026007
0.00263991
0.00273597
0.00279346
0.002714
0.00252601
0.00178484
0.0028397
0.00494228
0.00514871
0.00504339
0.00485505
0.00468744
0.00457279
0.00448493
0.00441515
0.00434609
0.00425725
0.00412396
0.0038541
0.00320639
0.00223196
0.00292404
0.00448146
0.00435512
0.00413874
0.00406395
0.00400602
0.00392034
0.0037967
0.00363154
0.00343162
0.00321575
0.00301051
0.00284404
0.00274012
0.00270334
0.00271085
0.00274874
0.00280179
0.00282695
0.00275765
0.00255604
0.00223229
0.00145401
0.00296829
0.00570574
0.00580535
0.00555154
0.00530201
0.00506264
0.00482035
0.00457889
0.00429053
0.0039505
0.00359783
0.00325238
0.00288425
0.00234659
0.00166066
0.00254511
0.00393853
0.00388439
0.0037938
0.00377936
0.00374279
0.00367191
0.00357451
0.00345919
0.00333859
0.00322682
0.00313294
0.00305597
0.00300038
0.00299487
0.00303332
0.00310122
0.00317694
0.00324629
0.00326041
0.00328115
0.0028137
0.00147381
0.00254357
0.00268698
0.00280891
0.00295787
0.00275824
0.00255605
0.00235298
0.00217707
0.00201116
0.00185612
0.00171982
0.00160204
0.00149404
0.00139196
0.00129379
0.0011953
0.00106066
0.00103931
0.00109402
0.00107001
0.00106406
0.00106125
0.00105835
0.00105616
0.00105638
0.00106071
0.00107066
0.00108756
0.0011127
0.00114798
0.00119432
0.00124958
0.00131439
0.00138853
0.00147162
0.00158333
0.00162067
0.0015861
0.00148183
0.00136916
)
;

boundaryField
{
    floor
    {
        type            compressible::alphatWallFunction;
        Prt             0.85;
        value           nonuniform List<scalar> 
29
(
0.000150937
0.000114794
0.000106758
0.000100339
9.56276e-05
9.18605e-05
8.83452e-05
8.4616e-05
8.10711e-05
7.77072e-05
7.45007e-05
7.14422e-05
6.85195e-05
6.57116e-05
6.29805e-05
6.0258e-05
5.74331e-05
5.42948e-05
5.19858e-05
4.69179e-05
4.69172e-05
6.36822e-05
7.61715e-05
8.58023e-05
0.000150936
0.000114793
0.000135323
0.00015226
0.000171337
)
;
    }
    ceiling
    {
        type            compressible::alphatWallFunction;
        Prt             0.85;
        value           nonuniform List<scalar> 
43
(
0.000346812
0.000364963
0.000380318
0.000399105
0.000374111
0.000348582
0.000322714
0.000300105
0.0002786
0.000258328
0.000240353
0.000224693
0.000210222
0.000196437
0.000183071
0.000169547
0.000150859
0.000147876
0.000155527
0.000152176
0.000151346
0.000150952
0.000150548
0.000150241
0.000150272
0.000150877
0.000152268
0.000154626
0.000158129
0.000163028
0.000169436
0.000177041
0.000185912
0.000195999
0.000207234
0.000222227
0.000227213
0.000222597
0.000208611
0.000193374
0.000473482
0.000566488
0.000400168
)
;
    }
    sWall
    {
        type            compressible::alphatWallFunction;
        Prt             0.85;
        value           uniform 0.000345531;
    }
    nWall
    {
        type            compressible::alphatWallFunction;
        Prt             0.85;
        value           nonuniform List<scalar> 6(0.000149434 0.000156302 0.000177194 0.000204489 0.000207157 0.000193003);
    }
    sideWalls
    {
        type            empty;
    }
    glass1
    {
        type            compressible::alphatWallFunction;
        Prt             0.85;
        value           nonuniform List<scalar> 9(0.000122143 0.000183298 0.000237438 0.000292302 0.000347767 0.000404092 0.000460125 0.000474309 0.000466112);
    }
    glass2
    {
        type            compressible::alphatWallFunction;
        Prt             0.85;
        value           nonuniform List<scalar> 2(0.000268643 0.000246734);
    }
    sun
    {
        type            compressible::alphatWallFunction;
        Prt             0.85;
        value           nonuniform List<scalar> 
14
(
0.000125882
0.000131819
0.000130281
0.000134491
0.000138054
0.000141036
0.00014358
0.000145826
0.000147915
0.000149941
0.000151365
0.000152033
0.000151964
0.000151522
)
;
    }
    heatsource1
    {
        type            compressible::alphatWallFunction;
        Prt             0.85;
        value           nonuniform List<scalar> 3(0.000113959 0.000134934 0.000149872);
    }
    heatsource2
    {
        type            compressible::alphatWallFunction;
        Prt             0.85;
        value           nonuniform List<scalar> 4(0.000155342 0.00014512 0.000145118 0.000169626);
    }
    Table_master
    {
        type            compressible::alphatWallFunction;
        Prt             0.85;
        value           nonuniform List<scalar> 9(0.000106246 9.39912e-05 8.45882e-05 7.72378e-05 7.13589e-05 6.6556e-05 6.25853e-05 5.93434e-05 5.69238e-05);
    }
    Table_slave
    {
        type            compressible::alphatWallFunction;
        Prt             0.85;
        value           nonuniform List<scalar> 9(0.000115123 0.000109065 0.000106377 0.000104748 0.000102824 9.9747e-05 9.59849e-05 9.18209e-05 8.65809e-05);
    }
    inlet
    {
        type            fixedValue;
        value           uniform 1.94e-05;
    }
    outlet
    {
        type            zeroGradient;
    }
}


// ************************************************************************* //
