/*--------------------------------*- C++ -*----------------------------------*\
  =========                 |
  \\      /  F ield         | OpenFOAM: The Open Source CFD Toolbox
   \\    /   O peration     | Website:  https://openfoam.org
    \\  /    A nd           | Version:  6
     \\/     M anipulation  |
\*---------------------------------------------------------------------------*/
FoamFile
{
    version     2.0;
    format      ascii;
    class       volScalarField;
    location    "200";
    object      epsilon;
}
// * * * * * * * * * * * * * * * * * * * * * * * * * * * * * * * * * * * * * //

dimensions      [0 2 -3 0 0 0 0];

internalField   nonuniform List<scalar> 
459
(
0.000154869
0.000177305
0.000171153
0.000188324
0.000203773
0.000217375
0.000229473
0.000240541
0.000251169
0.000261787
0.000269432
0.000273066
0.000272671
0.00027024
0.000267057
0.000117416
9.48552e-05
7.91857e-05
6.89184e-05
6.14159e-05
5.49541e-05
4.86415e-05
4.31338e-05
3.833e-05
3.41158e-05
3.04124e-05
2.71485e-05
2.42544e-05
2.1656e-05
1.92687e-05
1.69954e-05
1.47004e-05
1.31589e-05
1.01844e-05
0.000529245
0.00113118
0.000164822
0.000143962
0.000141073
0.000140626
0.000142175
0.000146801
0.00015568
0.000169453
0.000184051
0.000196845
0.000205586
0.000212076
0.000230216
0.000290408
0.000235939
0.000191838
0.000103278
7.00536e-05
5.48277e-05
4.57411e-05
3.9671e-05
3.6715e-05
3.26001e-05
2.86494e-05
2.49835e-05
2.16811e-05
1.87674e-05
1.62219e-05
1.40126e-05
1.22045e-05
1.1253e-05
1.11963e-05
3.50598e-05
2.23027e-05
0.0011852
0.00362042
0.000260782
0.000144566
0.000138121
0.000141496
0.000148663
0.000160008
0.000175748
0.000195178
0.000214469
0.000228195
0.000232448
0.000229526
0.000231177
0.000256788
0.000380588
0.000274335
9.91579e-05
6.53256e-05
5.22869e-05
4.4887e-05
4.2753e-05
9.30402e-05
6.52103e-05
4.82987e-05
3.74454e-05
3.01073e-05
2.49199e-05
2.11377e-05
1.83672e-05
1.64749e-05
1.32409e-05
1.23902e-05
7.30344e-05
3.62621e-05
0.00228672
0.00857377
0.000555373
0.000158428
0.000141989
0.000150031
0.000162468
0.000179345
0.000201675
0.000229673
0.000257398
0.000273997
0.000273828
0.000259418
0.000239734
0.00023115
0.000271222
0.000394045
0.000168997
8.5986e-05
6.13863e-05
5.0709e-05
4.55346e-05
4.67982e-05
0.000117839
0.000100482
9.33912e-05
8.92719e-05
8.45704e-05
7.7423e-05
6.92776e-05
6.09905e-05
5.15904e-05
3.16245e-05
2.2089e-05
0.000146535
5.05813e-05
0.00398153
0.0162689
0.00135898
0.000200762
0.00014516
0.000153705
0.000171018
0.000196172
0.00023223
0.000281148
0.000327777
0.000351351
0.000347106
0.000320245
0.000278674
0.000235558
0.000217445
0.000232064
0.000137032
8.90045e-05
6.51178e-05
5.48168e-05
5.12141e-05
5.17338e-05
5.80107e-05
6.15709e-05
6.4238e-05
6.5348e-05
6.38376e-05
5.91132e-05
5.2778e-05
4.73828e-05
4.29612e-05
3.57719e-05
2.86937e-05
0.000101242
6.04926e-05
0.000114365
0.000189432
0.000260502
0.0064488
0.0245111
0.00357114
0.000417746
0.000186248
0.000168714
0.000180692
0.000209384
0.000263339
0.000360845
0.000434966
0.0004616
0.000448079
0.000406452
0.000344054
0.000269118
0.000209553
0.000198035
0.000153321
0.000102859
7.58983e-05
6.51482e-05
6.27438e-05
6.47314e-05
7.00818e-05
7.67686e-05
8.32293e-05
8.77993e-05
8.86609e-05
8.37199e-05
7.15036e-05
5.89726e-05
4.84751e-05
3.99826e-05
3.56303e-05
6.65758e-05
6.45904e-05
8.27968e-05
0.000357823
0.000298683
0.00980558
0.029167
0.00898327
0.00196646
0.000736894
0.000399818
0.00031231
0.000305835
0.000361649
0.00053961
0.000614198
0.00061693
0.000576705
0.000511782
0.000427593
0.000323215
0.000226228
0.000212495
0.000183304
0.000124711
9.50342e-05
8.40328e-05
8.19252e-05
8.47523e-05
9.11739e-05
0.000100091
0.000110448
0.000120308
0.000128086
0.000130433
0.000121909
0.000100016
8.09302e-05
6.65097e-05
6.17247e-05
7.76941e-05
0.000102852
0.00019371
0.000498207
0.00043918
0.0108296
0.0355286
0.018076
0.0105259
0.00553749
0.00281481
0.00161458
0.00113046
0.00101657
0.000985786
0.000925499
0.000836974
0.000735493
0.000629876
0.000516964
0.000385669
0.000253923
0.000234498
0.000224036
0.000158924
0.000126862
0.000115008
0.000112007
0.000113996
0.000119843
0.000129075
0.000141579
0.000157555
0.000177389
0.000200509
0.000223827
0.000233308
0.000230364
0.000246187
0.000292237
0.000469972
0.00097826
0.00225213
0.00709127
0.00166582
0.0102551
0.0183549
0.0154874
0.011676
0.00843424
0.00581327
0.00399169
0.00285327
0.00215927
0.00167638
0.00133676
0.00108869
0.000898322
0.000742834
0.000598368
0.000437344
0.000272624
0.000258012
0.000283066
0.000217168
0.00018275
0.00016889
0.000162671
0.000160406
0.000161448
0.000166039
0.000175177
0.000190872
0.000216184
0.000254984
0.000311848
0.000392096
0.000501835
0.000672746
0.000933913
0.00129203
0.00169544
0.00202284
0.00223711
0.00127321
0.00724189
0.0103375
0.00761317
0.00562406
0.00416105
0.00311856
0.00238981
0.00186645
0.00148124
0.00119224
0.000968598
0.000789012
0.000625503
0.000445779
0.000269215
0.000279555
0.000386418
0.000327159
0.000291602
0.000277985
0.000269011
0.000260853
0.00025352
0.000247521
0.000244016
0.00024524
0.000254706
0.000277449
0.000320587
0.000391902
0.000498613
0.000650979
0.000852448
0.00107575
0.00124584
0.0012618
0.00104394
0.000687872
0.00553043
0.00941256
0.00698609
0.00516527
0.00390509
0.00297476
0.00226596
0.00173174
0.00133039
0.00102514
0.000792826
0.000616484
0.000482213
0.000376694
0.000256913
0.000285748
0.000412155
0.00044734
0.000436883
0.00042823
0.000417103
0.000402005
0.000384307
0.000366585
0.000352282
0.000345175
0.000348834
0.000366643
0.00040287
0.000464298
0.000558093
0.000690499
0.000861509
0.00106184
0.00122511
0.00134732
0.000913857
0.000716266
0.00354592
0.00417767
0.00477233
0.00567515
0.00463363
0.00370226
0.00289395
0.00229405
0.00180928
0.00142258
0.00113181
0.000914953
0.000742198
0.000600299
0.000482088
0.000380228
0.000266102
0.000250779
0.000292572
0.000273758
0.000269235
0.000267116
0.000264946
0.000263307
0.000263479
0.000266734
0.000274317
0.000287513
0.000307926
0.000338158
0.000380792
0.000436138
0.000507599
0.000598466
0.000712529
0.000887589
0.000951996
0.000892409
0.000727746
0.000574241
)
;

boundaryField
{
    floor
    {
        Cmu             0.09;
        kappa           0.41;
        E               9.8;
        type            epsilonWallFunction;
        value           nonuniform List<scalar> 
29
(
0.000267057
0.000117416
9.48552e-05
7.91857e-05
6.89184e-05
6.14159e-05
5.49541e-05
4.86415e-05
4.31338e-05
3.833e-05
3.41158e-05
3.04124e-05
2.71485e-05
2.42544e-05
2.1656e-05
1.92687e-05
1.69954e-05
1.47004e-05
1.31589e-05
1.01844e-05
1.01844e-05
2.23027e-05
3.62621e-05
5.05813e-05
0.000267057
0.000117416
0.000191838
0.000274335
0.000394045
)
;
    }
    ceiling
    {
        Cmu             0.09;
        kappa           0.41;
        E               9.8;
        type            epsilonWallFunction;
        value           nonuniform List<scalar> 
43
(
0.00354592
0.00417767
0.00477233
0.00567515
0.00463363
0.00370226
0.00289395
0.00229405
0.00180928
0.00142258
0.00113181
0.000914953
0.000742198
0.000600299
0.000482088
0.000380228
0.000266102
0.000250779
0.000292572
0.000273758
0.000269235
0.000267116
0.000264946
0.000263307
0.000263479
0.000266734
0.000274317
0.000287513
0.000307926
0.000338158
0.000380792
0.000436138
0.000507599
0.000598466
0.000712529
0.000887589
0.000951996
0.000892409
0.000727746
0.000574241
0.0102551
0.0183549
0.00553043
)
;
    }
    sWall
    {
        Cmu             0.09;
        kappa           0.41;
        E               9.8;
        type            epsilonWallFunction;
        value           uniform 0.00354592;
    }
    nWall
    {
        Cmu             0.09;
        kappa           0.41;
        E               9.8;
        type            epsilonWallFunction;
        value           nonuniform List<scalar> 6(0.000260502 0.000298683 0.00043918 0.000687872 0.000716266 0.000574241);
    }
    sideWalls
    {
        type            empty;
    }
    glass1
    {
        Cmu             0.09;
        kappa           0.41;
        E               9.8;
        type            epsilonWallFunction;
        value           nonuniform List<scalar> 9(0.000154869 0.000529245 0.0011852 0.00228672 0.00398153 0.0064488 0.00980558 0.0108296 0.0102551);
    }
    glass2
    {
        Cmu             0.09;
        kappa           0.41;
        E               9.8;
        type            epsilonWallFunction;
        value           nonuniform List<scalar> 2(0.00166582 0.00127321);
    }
    sun
    {
        Cmu             0.09;
        kappa           0.41;
        E               9.8;
        type            epsilonWallFunction;
        value           nonuniform List<scalar> 
14
(
0.000154869
0.000177305
0.000171153
0.000188324
0.000203773
0.000217375
0.000229473
0.000240541
0.000251169
0.000261787
0.000269432
0.000273066
0.000272671
0.00027024
)
;
    }
    heatsource1
    {
        Cmu             0.09;
        kappa           0.41;
        E               9.8;
        type            epsilonWallFunction;
        value           nonuniform List<scalar> 3(0.000114365 0.000189432 0.000260502);
    }
    heatsource2
    {
        Cmu             0.09;
        kappa           0.41;
        E               9.8;
        type            epsilonWallFunction;
        value           nonuniform List<scalar> 4(0.000290408 0.000235939 0.000235939 0.000380588);
    }
    Table_master
    {
        Cmu             0.09;
        kappa           0.41;
        E               9.8;
        type            epsilonWallFunction;
        value           nonuniform List<scalar> 9(9.30402e-05 6.52103e-05 4.82987e-05 3.74454e-05 3.01073e-05 2.49199e-05 2.11377e-05 1.83672e-05 1.64749e-05);
    }
    Table_slave
    {
        Cmu             0.09;
        kappa           0.41;
        E               9.8;
        type            epsilonWallFunction;
        value           nonuniform List<scalar> 9(0.000117839 0.000100482 9.33912e-05 8.92719e-05 8.45704e-05 7.7423e-05 6.92776e-05 6.09905e-05 5.15904e-05);
    }
    inlet
    {
        type            turbulentMixingLengthDissipationRateInlet;
        mixingLength    0.01;
        phi             phi;
        k               k;
        value           uniform 0.000101881;
    }
    outlet
    {
        type            zeroGradient;
    }
}


// ************************************************************************* //
