/*--------------------------------*- C++ -*----------------------------------*\
  =========                 |
  \\      /  F ield         | OpenFOAM: The Open Source CFD Toolbox
   \\    /   O peration     | Website:  https://openfoam.org
    \\  /    A nd           | Version:  6
     \\/     M anipulation  |
\*---------------------------------------------------------------------------*/
FoamFile
{
    version     2.0;
    format      ascii;
    class       volScalarField;
    location    "200";
    object      nut;
}
// * * * * * * * * * * * * * * * * * * * * * * * * * * * * * * * * * * * * * //

dimensions      [0 2 -1 0 0 0 0];

internalField   nonuniform List<scalar> 
459
(
0.000759224
0.000794248
0.000784957
0.000810375
0.000831956
0.00085007
0.000865557
0.000879254
0.000892018
0.000904414
0.000913134
0.000917221
0.000916778
0.000914046
0.000910442
0.00069227
0.000644746
0.00060709
0.00057963
0.000557786
0.000537496
0.000516074
0.000495812
0.000476679
0.000458529
0.0004413
0.000424915
0.000409248
0.000394082
0.000379037
0.000363508
0.000346354
0.000333803
0.000306478
0.00114357
0.00185212
0.00158504
0.00183985
0.00197625
0.00211983
0.00226185
0.00239018
0.00248714
0.0025374
0.00254887
0.00249362
0.00233181
0.00201041
0.00148417
0.00093624
0.000873606
0.000815352
0.0011873
0.00143089
0.00162037
0.00173258
0.00172748
0.00149415
0.00133953
0.0012153
0.00111134
0.00102129
0.000941054
0.000866692
0.000793401
0.0007174
0.000649499
0.000588367
0.000695368
0.000397971
0.00149614
0.00274747
0.00173139
0.00255513
0.00275745
0.00289923
0.00300765
0.00309018
0.00315216
0.00318985
0.00321118
0.00319066
0.00309497
0.00288519
0.00251416
0.00192656
0.00102456
0.0009186
0.00193084
0.00238425
0.0026043
0.00265939
0.00234453
0.000640614
0.000569048
0.000514864
0.000472988
0.000439822
0.000412956
0.000390911
0.000373028
0.000359753
0.000406441
0.000469034
0.000786608
0.000467959
0.00186257
0.00412931
0.00167148
0.00282803
0.00314294
0.00324392
0.00328768
0.0033071
0.00332364
0.0033443
0.00337241
0.00338783
0.00336318
0.00327129
0.00307961
0.00272776
0.00207627
0.00103648
0.00242516
0.00292581
0.00307481
0.00312797
0.00309781
0.00267064
0.000693106
0.000657253
0.000641412
0.000631837
0.000620542
0.000602541
0.000580623
0.000556481
0.000526282
0.00049351
0.000490432
0.00095403
0.000522856
0.00224074
0.00599663
0.00203904
0.00266155
0.00327877
0.00337837
0.00337657
0.00334696
0.00332928
0.00334489
0.00338989
0.00344449
0.00347025
0.00343155
0.00329845
0.00309602
0.00299988
0.00318341
0.00326059
0.00329182
0.00324878
0.00323043
0.00322942
0.00316326
0.0028377
0.0027747
0.0027568
0.0027253
0.0026576
0.00254068
0.00231527
0.00199397
0.0016174
0.00122078
0.000883389
0.000920957
0.000656163
0.000686228
0.000811938
0.000902904
0.00263149
0.00802386
0.00353574
0.00232756
0.00304072
0.00332501
0.00338592
0.00336066
0.00330897
0.00329268
0.00336561
0.00346351
0.00353499
0.00353644
0.00340247
0.00309426
0.00281073
0.00310602
0.0033788
0.0033541
0.00324914
0.0031984
0.00321269
0.00325052
0.00326995
0.00329656
0.00329885
0.00326696
0.0032007
0.00310439
0.00295915
0.0026983
0.00232462
0.00185582
0.00139197
0.000995953
0.000831137
0.000786132
0.00118831
0.000945019
0.00302598
0.00969251
0.0065178
0.00340319
0.00254578
0.002599
0.00292056
0.00319516
0.00337517
0.00326995
0.00337268
0.00348562
0.00357617
0.0036098
0.0035039
0.00313454
0.00263245
0.00295892
0.00343735
0.00339901
0.00325762
0.00318861
0.00319562
0.00323653
0.00327791
0.00330035
0.00328743
0.00324533
0.0031869
0.00312727
0.00307527
0.00293451
0.00263691
0.00221357
0.00178743
0.00135465
0.00112907
0.00112644
0.00125022
0.00107459
0.00312786
0.00963131
0.00796082
0.00634536
0.00470678
0.00360529
0.00316218
0.00316094
0.00334558
0.00340442
0.00346103
0.00353349
0.00360534
0.00363763
0.00354016
0.00315064
0.002509
0.00282444
0.00350979
0.00347439
0.00330958
0.0032276
0.00320971
0.00320976
0.00319922
0.00316466
0.00310659
0.00303943
0.00298681
0.00297158
0.00300829
0.003068
0.0029072
0.00256238
0.00226854
0.00216296
0.00240221
0.00321259
0.00433032
0.00167589
0.00307153
0.00372929
0.00426113
0.00446569
0.00438815
0.00407783
0.00376187
0.00356343
0.00347939
0.00345817
0.00349508
0.00355984
0.0036192
0.00363271
0.00351097
0.00306291
0.00229419
0.00268554
0.00363199
0.00359172
0.00340783
0.00331541
0.00326441
0.00321005
0.00313206
0.00302334
0.00288852
0.00274224
0.00260313
0.00248494
0.00239112
0.00231662
0.00225877
0.00223063
0.00226448
0.00234722
0.00239696
0.00232917
0.00216805
0.00153228
0.00238541
0.00420478
0.00440431
0.00432235
0.00416403
0.00402142
0.00392331
0.00384787
0.00378769
0.00372796
0.00365117
0.00353623
0.0033042
0.00274834
0.00191315
0.00250716
0.00384327
0.00373523
0.00354976
0.00348565
0.00343599
0.00336254
0.00325652
0.0031149
0.00294345
0.00275833
0.00258232
0.00243956
0.00235046
0.00231897
0.00232549
0.00235812
0.00240383
0.00242568
0.00236649
0.00219368
0.0019159
0.00124798
0.00250013
0.00485346
0.00495806
0.00475044
0.00454123
0.00433811
0.00413125
0.00392451
0.00367746
0.00338602
0.00308369
0.00278751
0.00247186
0.00201096
0.00142347
0.00218265
0.00337805
0.00333183
0.0032542
0.00324185
0.00321051
0.00314974
0.00306623
0.00296734
0.00286392
0.00276808
0.0026876
0.00262161
0.00257397
0.0025693
0.00260236
0.00266073
0.00272586
0.00278557
0.00279792
0.00281591
0.00241467
0.00126492
0.00215585
0.00227695
0.00238024
0.00252175
0.00235695
0.00218709
0.00201469
0.00186456
0.00172271
0.00159001
0.00147332
0.00137248
0.00128001
0.0011926
0.00110852
0.00102419
0.000909287
0.000891519
0.000938503
0.000917941
0.000912856
0.000910451
0.000907978
0.000906102
0.000906302
0.000910021
0.000918568
0.00093307
0.000954652
0.000984926
0.00102469
0.00107211
0.00112773
0.00119137
0.0012627
0.00135864
0.00139074
0.0013611
0.00127163
0.00117508
)
;

boundaryField
{
    floor
    {
        type            nutkWallFunction;
        Cmu             0.09;
        kappa           0.41;
        E               9.8;
        value           nonuniform List<scalar> 
29
(
0.000110122
8.37824e-05
7.79213e-05
7.32402e-05
6.98045e-05
6.70572e-05
6.44936e-05
6.1774e-05
5.91888e-05
5.67354e-05
5.43969e-05
5.21661e-05
5.00343e-05
4.79862e-05
4.59941e-05
4.40082e-05
4.19475e-05
3.96581e-05
3.79735e-05
3.42774e-05
3.42774e-05
4.65054e-05
5.56126e-05
6.26356e-05
0.000110122
8.37824e-05
9.87472e-05
0.000111095
0.000124995
)
;
    }
    ceiling
    {
        type            nutkWallFunction;
        Cmu             0.09;
        kappa           0.41;
        E               9.8;
        value           nonuniform List<scalar> 
43
(
0.0002501
0.000263129
0.000274186
0.000289379
0.000271853
0.000253626
0.000234958
0.000218557
0.000202926
0.000188177
0.000175095
0.000163698
0.000153164
0.000143129
0.000133398
0.000123553
0.000109989
0.000107872
0.000113457
0.000111018
0.000110414
0.000110128
0.000109834
0.000109611
0.000109634
0.000110077
0.000111092
0.000112813
0.000115368
0.000118942
0.000123617
0.000129164
0.000135636
0.000142996
0.000151194
0.000162139
0.000165782
0.000162419
0.000152217
0.000141117
0.00034751
0.000415337
0.000286837
)
;
    }
    sWall
    {
        type            nutkWallFunction;
        Cmu             0.09;
        kappa           0.41;
        E               9.8;
        value           uniform 0.000250169;
    }
    nWall
    {
        type            nutkWallFunction;
        Cmu             0.09;
        kappa           0.41;
        E               9.8;
        value           nonuniform List<scalar> 6(0.000109231 0.000114231 0.00012946 0.000149519 0.000151461 0.000141127);
    }
    sideWalls
    {
        type            empty;
    }
    glass1
    {
        type            nutkWallFunction;
        Cmu             0.09;
        kappa           0.41;
        E               9.8;
        value           nonuniform List<scalar> 9(9.1943e-05 0.000137608 0.000177926 0.000218712 0.000259894 0.000301671 0.000343191 0.00035383 0.000347975);
    }
    glass2
    {
        type            nutkWallFunction;
        Cmu             0.09;
        kappa           0.41;
        E               9.8;
        value           nonuniform List<scalar> 2(0.000197868 0.000181834);
    }
    sun
    {
        type            nutkWallFunction;
        Cmu             0.09;
        kappa           0.41;
        E               9.8;
        value           nonuniform List<scalar> 
14
(
9.19561e-05
9.61988e-05
9.50752e-05
9.81446e-05
0.000100742
0.000102915
0.00010477
0.000106406
0.000107929
0.000109405
0.000110442
0.000110928
0.000110875
0.00011055
)
;
    }
    heatsource1
    {
        type            nutkWallFunction;
        Cmu             0.09;
        kappa           0.41;
        E               9.8;
        value           nonuniform List<scalar> 3(8.30414e-05 9.83343e-05 0.000109226);
    }
    heatsource2
    {
        type            nutkWallFunction;
        Cmu             0.09;
        kappa           0.41;
        E               9.8;
        value           nonuniform List<scalar> 4(0.000113181 0.00010573 0.00010573 0.000123592);
    }
    Table_master
    {
        type            nutkWallFunction;
        Cmu             0.09;
        kappa           0.41;
        E               9.8;
        value           nonuniform List<scalar> 9(7.74122e-05 6.84806e-05 6.16275e-05 5.62704e-05 5.19858e-05 4.84853e-05 4.55914e-05 4.32288e-05 4.14654e-05);
    }
    Table_slave
    {
        type            nutkWallFunction;
        Cmu             0.09;
        kappa           0.41;
        E               9.8;
        value           nonuniform List<scalar> 9(8.38865e-05 7.94713e-05 7.75116e-05 7.63243e-05 7.4921e-05 7.2678e-05 6.99355e-05 6.69003e-05 6.30807e-05);
    }
    inlet
    {
        type            calculated;
        value           uniform 0.000100623;
    }
    outlet
    {
        type            calculated;
        value           nonuniform List<scalar> 2(0.00215585 0.00227695);
    }
}


// ************************************************************************* //
