/*--------------------------------*- C++ -*----------------------------------*\
  =========                 |
  \\      /  F ield         | OpenFOAM: The Open Source CFD Toolbox
   \\    /   O peration     | Website:  https://openfoam.org
    \\  /    A nd           | Version:  6
     \\/     M anipulation  |
\*---------------------------------------------------------------------------*/
FoamFile
{
    version     2.0;
    format      ascii;
    class       surfaceScalarField;
    location    "200";
    object      phi;
}
// * * * * * * * * * * * * * * * * * * * * * * * * * * * * * * * * * * * * * //

dimensions      [1 0 -1 0 0 0 0];

internalField   nonuniform List<scalar> 
852
(
-0.00284423
0.00291211
-0.00346261
0.000618434
-0.00411308
0.000650517
-0.00471438
0.000601339
-0.00522826
0.000513931
-0.00563745
0.000409233
-0.00592517
0.000287773
-0.00607082
0.000145687
-0.00604956
-2.12122e-05
-0.00582991
-0.000219605
-0.00538739
-0.000442469
-0.00471022
-0.000677126
-0.00376256
-0.000947622
-0.00235315
-0.00140937
-0.00235014
0.000927442
-0.000923799
0.00147857
-0.000551083
0.00175458
-0.000275953
0.00191886
-0.000164234
0.00203128
-0.000112372
0.00209443
-6.31009e-05
0.00210247
-7.99386e-06
0.00208141
2.11103e-05
0.00205165
2.98029e-05
0.00201967
3.20283e-05
0.00198634
3.33807e-05
0.00195059
3.57929e-05
0.00190826
4.23776e-05
0.00184826
6.00417e-05
0.00174481
0.000103492
0.00155581
0.000189046
0.0012676
0.000288249
0.000927407
0.000340235
0.000933632
-0.00205225
0.00514508
-0.00285899
0.00142523
-0.00361621
0.00140778
-0.0042403
0.00122548
-0.00476074
0.00103441
-0.00517777
0.000826313
-0.00547982
0.000589871
-0.00564857
0.00031448
-0.00566183
-7.9079e-06
-0.00550438
-0.000377012
-0.00516676
-0.000780044
-0.00464685
-0.00119699
-0.00395482
-0.00163961
-0.00324197
-0.00212217
-0.00321925
-0.00237282
-0.00135247
-0.00186678
-0.00135248
0.000800747
-0.00171489
0.00111002
-0.000860306
0.00130037
-0.000466255
0.00145392
-0.000317728
0.00157392
-0.00023232
0.00165737
-0.000146499
0.0016746
-2.51765e-05
0.00168038
1.53741e-05
0.00168518
2.50542e-05
0.00168944
2.78173e-05
0.00169301
2.98617e-05
0.00169579
3.30543e-05
0.0016969
4.13194e-05
0.0016922
6.47887e-05
0.00165023
0.000145502
0.0014611
0.000378222
0.00113486
0.000614531
0.000745344
0.000729793
0.00169492
-0.00148863
0.00690605
-0.00231072
0.00224736
-0.00301924
0.00211634
-0.00357339
0.00177967
-0.00404213
0.00150321
-0.00442744
0.00121167
-0.00471658
0.000879057
-0.00489014
0.000488082
-0.00492589
2.78927e-05
-0.00480319
-0.000499665
-0.00451711
-0.00106609
-0.00408477
-0.00162929
-0.00356085
-0.00216349
-0.00306111
-0.00262186
-0.002576
-0.00285789
-0.0015728
-0.00286994
-0.00292524
0.00027455
-0.00197471
0.000570719
-0.00115642
0.000813644
-0.000709128
0.00100535
-0.000509378
0.00115979
-0.000386709
0.00129414
-0.000280803
0.00126917
0.00128475
0.00131001
0.00133803
0.0013681
0.00140136
0.00144288
0.00150787
0.00165357
0.00136782
0.000664015
0.00101705
0.00096535
0.000602599
0.00114428
0.00232149
-0.00109449
0.00834722
-0.00187076
0.00302368
-0.00237276
0.0026184
-0.00278632
0.00219327
-0.00315955
0.00187649
-0.00348361
0.00153577
-0.00374217
0.00113767
-0.00391331
0.000659265
-0.00396774
8.23686e-05
-0.00387401
-0.000593354
-0.00363555
-0.0013045
-0.00329581
-0.00196898
-0.0029216
-0.00253765
-0.00256698
-0.00297644
-0.00217542
-0.00324941
-0.00169421
-0.00335111
-0.00163134
-0.00298806
0.000283187
-0.00189844
0.000130539
-0.00182202
0.000291426
-0.00131726
0.000500823
-0.000918473
0.000682098
-0.000690602
0.000839574
-0.000544133
0.000971474
-0.000412652
0.00125519
-0.000283816
0.00150672
-0.000251641
0.00173673
-0.000230105
0.00193305
-0.000196432
0.00207081
-0.000137858
0.00211654
-4.58348e-05
0.00203937
7.70569e-05
0.00181109
0.00022818
0.00138083
0.000430151
0.00120086
0.00084403
0.000835808
0.00133045
0.000283792
0.00169635
0.00263646
-0.000799092
0.00955387
-0.00150422
0.00372885
-0.00168341
0.00279763
-0.00191951
0.00242942
-0.00216814
0.00212517
-0.00239839
0.00176607
-0.00259164
0.00133097
-0.00272893
0.0007966
-0.00277905
0.000132541
-0.00269113
-0.000681231
-0.00248595
-0.00150964
-0.00222896
-0.00222592
-0.00197841
-0.00278817
-0.00175796
-0.00319685
-0.00153775
-0.00346958
-0.00128086
-0.00360795
-0.00084013
-0.00342875
-0.000122498
-0.00261603
1.36317e-05
-0.0019581
0.000114593
-0.00141817
0.000254105
-0.00105793
0.000399487
-0.000835932
0.000547301
-0.000691896
0.000715296
-0.000580596
0.000935298
-0.000503768
0.0011482
-0.000464493
0.00135041
-0.000432265
0.00153382
-0.000379795
0.00168041
-0.000284401
0.0017614
-0.00012678
0.00174635
9.21576e-05
0.0016259
0.000348677
0.00141368
0.000642425
0.00121056
0.00104719
0.000976111
0.00156495
0.000450916
0.00222159
0.000211099
0.00287632
-0.00130772
0.00151866
-0.00176104
0.000453171
-0.0017007
-0.000703824
0.0107158
-0.0012936
0.00431866
-0.00098843
0.00249251
-0.00097524
0.00241627
-0.00110044
0.00225042
-0.00122833
0.001894
-0.00132334
0.00142602
-0.0013813
0.000854604
-0.00137628
0.000127567
-0.00125806
-0.000799409
-0.00108829
-0.00167936
-0.000930792
-0.00238338
-0.000820948
-0.00289797
-0.000765184
-0.00325258
-0.000739392
-0.00349534
-0.000670713
-0.00367659
-0.000423364
-0.00367606
-0.000145168
-0.00289418
-8.48577e-05
-0.00201836
-4.63557e-05
-0.00145662
1.8478e-05
-0.00112272
0.000104198
-0.000921601
0.000207833
-0.000795481
0.00033715
-0.000709862
0.000490192
-0.000656759
0.000652469
-0.00062672
0.000818736
-0.000598484
0.000985744
-0.000546755
0.00114558
-0.000444193
0.00128118
-0.000262332
0.00135589
1.75013e-05
0.00135847
0.000346142
0.00131592
0.000685023
0.00129102
0.00107213
0.00134968
0.00150634
0.00148753
0.00208378
0.00201304
0.00235086
0.00228997
0.00124178
0.00190827
0.000834924
0.000279736
-0.00095355
0.0121707
-0.00100401
0.00436917
-5.68694e-05
0.00154542
0.000231445
0.002128
0.000165786
0.00231612
8.65501e-05
0.00197328
8.66734e-05
0.00142595
0.000142163
0.00079916
0.000280349
-1.05725e-05
0.000450148
-0.000969164
0.000546923
-0.00177609
0.000552214
-0.00238863
0.000470664
-0.00281638
0.000319503
-0.00310138
0.000129417
-0.00330522
-2.7893e-05
-0.00351925
-3.51232e-05
-0.00366878
-3.00223e-05
-0.00289923
-0.000123983
-0.00192434
-0.000198367
-0.00138219
-0.000228407
-0.00109262
-0.000225856
-0.000924101
-0.000199149
-0.000822137
-0.0001486
-0.000760362
-7.75901e-05
-0.00072772
9.4358e-06
-0.000713697
0.000110781
-0.000699781
0.000228528
-0.000664455
0.00036772
-0.000583339
0.000530837
-0.000425404
0.000704777
-0.000156393
0.000863073
0.000187891
0.00100353
0.000544613
0.00118398
0.000891728
0.00148044
0.00120992
0.0019778
0.00158646
0.00278783
0.00154088
0.00343642
0.000593247
0.00357388
0.000697509
0.00393155
0.00242065
0.0103073
0.00291376
0.00387611
0.00286282
0.0015964
0.00267062
0.00232024
0.00236142
0.00262537
0.00217153
0.00216322
0.00214305
0.00145447
0.00226309
0.000679169
0.00245933
-0.000206769
0.002521
-0.00103079
0.00241778
-0.00167283
0.00216686
-0.00213766
0.00180938
-0.00245887
0.00138782
-0.00267979
0.000948518
-0.00286589
0.000564058
-0.00313476
0.000341707
-0.00344639
0.000105705
-0.00266318
-0.000171376
-0.00164721
-0.000376042
-0.00117747
-0.00050713
-0.000961485
-0.000595617
-0.000835564
-0.000658538
-0.000759166
-0.000703097
-0.000715753
-0.000734203
-0.000696565
-0.000755389
-0.000692464
-0.000765633
-0.000689489
-0.000759193
-0.000670849
-0.000723396
-0.000619091
-0.000631645
-0.000517109
-0.000442129
-0.000345865
-0.000182442
-7.17507e-05
9.65055e-05
0.00026571
0.00040977
0.000578508
0.000776629
0.000843105
0.00127527
0.00108787
0.00179309
0.0010231
0.00184896
0.000537425
0.000875002
0.00167151
0.00513852
0.0109232
0.014797
0.0126798
0.00371365
0.0104594
0.00454073
0.00869952
0.00438524
0.0075031
0.00335969
0.00671819
0.00223943
0.00619266
0.00120474
0.00567751
0.000308423
0.00507761
-0.000430846
0.00441496
-0.00101015
0.00371274
-0.0014354
0.00298462
-0.00173071
0.00224702
-0.00194216
0.00153597
-0.00215481
0.000955463
-0.00255421
0.000648938
-0.00313982
0.000194951
-0.00220914
-0.000293995
-0.00115821
-0.000611528
-0.000859885
-0.000822184
-0.000750778
-0.000989349
-0.000668348
-0.00113738
-0.000611085
-0.00127836
-0.000574727
-0.00142131
-0.000553562
-0.00157264
-0.000541086
-0.00173578
-0.000526302
-0.00191343
-0.00049315
-0.00211012
-0.000422349
-0.00233315
-0.000294039
-0.00259256
-8.64119e-05
-0.00287512
0.000210861
-0.00321567
0.000606305
-0.0037485
0.00111138
-0.00461038
0.00170504
-0.00584583
0.00232336
-0.00755382
0.00273114
-0.00956883
0.00255248
-0.00883367
0.000936409
-0.0033245
0.00458745
0.00499404
0.0046076
0.0045206
0.00571646
0.0032764
0.00613977
0.00293641
0.00617474
0.00220448
0.00606756
0.00131195
0.0058361
0.00053992
0.0054346
-2.93076e-05
0.00486197
-0.000437485
0.0041689
-0.000742302
0.00339829
-0.000960073
0.00257858
-0.00112241
0.00174354
-0.00131975
0.00105101
-0.00186166
0.000740257
-0.00282901
0.000100201
-0.00156904
-0.000611198
-0.000446759
-0.000948186
-0.000522845
-0.00117442
-0.000524489
-0.00137692
-0.000465805
-0.00156762
-0.000420337
-0.00175775
-0.000384545
-0.00196001
-0.000351253
-0.00218263
-0.000318418
-0.00242656
-0.000282317
-0.00268415
-0.000235515
-0.00293868
-0.000167775
-0.00316232
-7.03469e-05
-0.00332447
7.57791e-05
-0.00343395
0.000320396
-0.00351447
0.000686867
-0.00359338
0.00119034
-0.0036908
0.0018025
-0.00374301
0.00237562
-0.00362911
0.00261729
-0.00313015
0.00205356
-0.00173807
-0.000455621
-0.00496738
-0.000791473
0.00584282
0.00129531
0.00243383
0.00251209
0.00205964
0.00343817
0.00201036
0.00415293
0.00148975
0.00456457
0.000900344
0.00466511
0.000439408
0.00451285
0.000122984
0.00419419
-0.000118791
0.00374333
-0.000291412
0.00319225
-0.000408967
0.00256206
-0.000492186
0.0018584
-0.000616058
0.00108225
-0.00108547
0.000231194
-0.00197789
-0.000601895
-0.000735892
-0.00116566
0.00011706
-0.00142635
-0.000262103
-0.00164624
-0.000304547
-0.00184527
-0.000266727
-0.00202312
-0.000242436
-0.00218408
-0.000223537
-0.00233386
-0.000201419
-0.00247699
-0.000175242
-0.00261536
-0.000143897
-0.00274678
-0.000104047
-0.00286428
-5.02232e-05
-0.00295591
2.13315e-05
-0.00299
0.000109917
-0.00291712
0.000247565
-0.00269757
0.000467366
-0.00230148
0.000794291
-0.00174718
0.00124825
-0.00103461
0.00166309
7.06497e-05
0.00151208
0.0014079
0.000716359
0.00162706
-0.000674741
-0.00323572
-0.00894619
-0.0116253
-0.00573306
-0.00326941
-0.00118527
0.00084675
0.00235722
0.00327852
0.00373966
0.00388546
0.00379064
0.00352434
0.00314167
0.00267705
0.00208993
0.00103486
-0.000913163
-0.00162275
-0.0014807
-0.00171769
-0.00199714
-0.00223882
-0.00245624
-0.0026548
-0.00283132
-0.0029818
-0.00310115
-0.00318098
-0.00320743
-0.00316289
-0.00303046
-0.00276117
-0.00227294
-0.0014587
-0.000191453
0.00148931
0.00301849
0.00375209
0.00309548
)
;

boundaryField
{
    floor
    {
        type            calculated;
        value           nonuniform List<scalar> 
29
(
0
0
0
0
0
0
0
0
0
0
0
0
0
0
0
0
0
0
0
0
-6.18216e-06
-1.58979e-05
-2.39316e-05
-3.11307e-05
-2.96179e-06
-3.59288e-06
-9.60959e-06
-1.4677e-05
-1.6035e-05
)
;
    }
    ceiling
    {
        type            calculated;
        value           nonuniform List<scalar> 
43
(
-5.31793e-05
-5.12411e-05
-4.94558e-05
-2.98016e-05
-2.44765e-05
-2.16299e-05
-2.06921e-05
-2.09269e-05
-2.16955e-05
-2.27827e-05
-2.39463e-05
-2.5082e-05
-2.62638e-05
-2.75304e-05
-2.8909e-05
-3.03621e-05
-2.97914e-05
-2.62549e-05
-2.49276e-05
-2.50701e-05
-2.50451e-05
-2.49989e-05
-2.49639e-05
-2.49243e-05
-2.48508e-05
-2.47151e-05
-2.44935e-05
-2.41688e-05
-2.37291e-05
-2.31587e-05
-2.24595e-05
-2.16771e-05
-2.08196e-05
-1.99041e-05
-1.89427e-05
-1.76168e-05
-1.70564e-05
-1.71984e-05
-1.80764e-05
-1.85509e-05
4.87207e-06
2.33968e-06
-5.73087e-05
)
;
    }
    sWall
    {
        type            calculated;
        value           uniform -0.000256566;
    }
    nWall
    {
        type            calculated;
        value           nonuniform List<scalar> 6(-6.04908e-05 -7.21145e-05 -7.7879e-05 -9.51359e-05 -0.000104551 -0.000121641);
    }
    sideWalls
    {
        type            empty;
        value           nonuniform 0();
    }
    glass1
    {
        type            calculated;
        value           nonuniform List<scalar> 9(-6.78416e-05 -0.000180684 -0.000272293 -0.000346639 -0.000407519 -0.000458053 -0.000501373 -0.000557186 -0.000620726);
    }
    glass2
    {
        type            calculated;
        value           nonuniform List<scalar> 2(-0.000331925 -0.000370612);
    }
    sun
    {
        type            calculated;
        value           uniform 0;
    }
    heatsource1
    {
        type            calculated;
        value           nonuniform List<scalar> 3(2.05976e-07 2.05807e-07 2.05818e-07);
    }
    heatsource2
    {
        type            calculated;
        value           nonuniform List<scalar> 4(5.13035e-08 5.15299e-08 0 0);
    }
    Table_master
    {
        type            calculated;
        value           nonuniform List<scalar> 9(-1.54552e-07 -1.54609e-07 -1.5462e-07 -1.54628e-07 -1.54633e-07 -1.54636e-07 -1.54634e-07 -1.54624e-07 -1.54583e-07);
    }
    Table_slave
    {
        type            calculated;
        value           nonuniform List<scalar> 9(1.54504e-07 1.54467e-07 1.54397e-07 1.54337e-07 1.54298e-07 1.54292e-07 1.54305e-07 1.54345e-07 1.54439e-07);
    }
    inlet
    {
        type            calculated;
        value           uniform -0.00586784;
    }
    outlet
    {
        type            calculated;
        value           nonuniform List<scalar> 2(0.00925595 0.00273042);
    }
}


// ************************************************************************* //
