/*--------------------------------*- C++ -*----------------------------------*\
  =========                 |
  \\      /  F ield         | OpenFOAM: The Open Source CFD Toolbox
   \\    /   O peration     | Website:  https://openfoam.org
    \\  /    A nd           | Version:  6
     \\/     M anipulation  |
\*---------------------------------------------------------------------------*/
FoamFile
{
    version     2.0;
    format      ascii;
    class       volScalarField;
    location    "200";
    object      T;
}
// * * * * * * * * * * * * * * * * * * * * * * * * * * * * * * * * * * * * * //

dimensions      [0 0 0 1 0 0 0];

internalField   nonuniform List<scalar> 
459
(
302.278
301.952
301.942
301.942
301.941
301.941
301.94
301.939
301.937
301.936
301.933
301.928
301.921
301.913
301.906
301.932
301.922
301.917
301.913
301.909
301.906
301.904
301.901
301.899
301.896
301.894
301.891
301.889
301.886
301.884
301.882
301.88
301.877
301.892
302.516
301.979
301.957
301.961
301.967
301.971
301.975
301.977
301.978
301.978
301.972
301.961
301.944
301.922
301.898
301.882
301.873
301.918
301.907
301.9
301.893
301.887
301.881
301.874
301.868
301.861
301.855
301.849
301.843
301.837
301.832
301.829
301.828
301.829
301.833
301.869
302.754
302.025
301.981
301.993
302.008
302.022
302.035
302.045
302.051
302.052
302.045
302.026
301.996
301.958
301.92
301.892
301.88
301.915
301.91
301.906
301.9
301.894
301.887
301.876
301.865
301.854
301.844
301.834
301.825
301.817
301.809
301.804
301.803
301.805
301.81
301.857
302.981
302.087
302.007
302.024
302.049
302.075
302.099
302.119
302.134
302.139
302.131
302.105
302.061
302.003
301.945
301.899
301.882
301.896
301.911
301.92
301.918
301.914
301.909
301.903
301.899
301.896
301.892
301.889
301.885
301.881
301.875
301.869
301.861
301.834
301.814
301.806
301.855
303.191
302.169
302.036
302.047
302.079
302.114
302.15
302.183
302.21
302.223
302.218
302.187
302.13
302.055
301.974
301.906
301.876
301.892
301.918
301.931
301.933
301.93
301.926
301.922
301.92
301.918
301.915
301.912
301.908
301.901
301.893
301.883
301.871
301.85
301.825
301.809
301.842
301.903
301.931
301.944
303.372
302.276
302.091
302.068
302.096
302.134
302.175
302.217
302.256
302.284
302.287
302.255
302.19
302.102
302.004
301.914
301.869
301.892
301.926
301.943
301.948
301.946
301.944
301.942
301.94
301.938
301.936
301.933
301.927
301.919
301.907
301.893
301.878
301.859
301.836
301.815
301.829
301.856
301.865
301.904
303.512
302.455
302.26
302.159
302.138
302.154
302.187
302.226
302.269
302.319
302.329
302.295
302.224
302.13
302.023
301.919
301.862
301.892
301.934
301.955
301.962
301.962
301.961
301.96
301.96
301.959
301.956
301.953
301.946
301.936
301.921
301.903
301.886
301.867
301.845
301.825
301.825
301.835
301.844
301.878
303.75
302.97
302.75
302.543
302.396
302.318
302.291
302.297
302.328
302.359
302.351
302.302
302.222
302.123
302.016
301.911
301.855
301.892
301.942
301.968
301.976
301.978
301.978
301.979
301.979
301.978
301.977
301.973
301.967
301.958
301.944
301.924
301.905
301.888
301.872
301.859
301.863
301.889
301.925
302.112
304.084
303.749
303.437
303.152
302.913
302.735
302.617
302.547
302.504
302.443
302.359
302.264
302.166
302.068
301.97
301.877
301.839
301.897
301.954
301.982
301.991
301.994
301.995
301.997
301.999
302
302
301.999
301.996
301.994
301.993
301.996
302.003
302.02
302.049
302.091
302.145
302.196
302.226
302.297
295.786
299.573
301.208
301.776
302
302.086
302.105
302.101
302.076
302.037
301.989
301.935
301.877
301.815
301.821
301.915
301.973
301.998
302.007
302.011
302.014
302.017
302.02
302.023
302.027
302.03
302.035
302.039
302.045
302.052
302.062
302.078
302.103
302.135
302.171
302.199
302.21
302.223
296.575
299.513
300.719
301.299
301.585
301.718
301.772
301.788
301.797
301.798
301.792
301.781
301.765
301.747
301.817
301.965
302.001
302.021
302.028
302.031
302.034
302.037
302.041
302.044
302.048
302.052
302.057
302.063
302.069
302.075
302.084
302.097
302.115
302.138
302.162
302.183
302.173
302.203
298.429
298.371
298.366
300.186
300.875
301.276
301.478
301.56
301.601
301.621
301.635
301.648
301.66
301.671
301.681
301.698
301.851
302.032
302.049
302.061
302.066
302.07
302.073
302.076
302.079
302.082
302.084
302.086
302.088
302.09
302.092
302.095
302.099
302.105
302.114
302.133
302.146
302.153
302.154
302.19
)
;

boundaryField
{
    floor
    {
        type            wallHeatTransfer;
        Tinf            uniform 305.2;
        alphaWall       uniform 0.24;
        value           nonuniform List<scalar> 
29
(
302.3
302.409
302.425
302.442
302.456
302.467
302.479
302.493
302.507
302.52
302.535
302.549
302.563
302.577
302.592
302.608
302.625
302.646
302.661
302.713
302.713
302.574
302.494
302.447
302.3
302.409
302.344
302.305
302.254
)
;
    }
    ceiling
    {
        type            wallHeatTransfer;
        Tinf            uniform 303.2;
        alphaWall       uniform 0.24;
        value           nonuniform List<scalar> 
43
(
298.718
298.65
298.636
300.347
301.007
301.392
301.589
301.672
301.717
301.744
301.765
301.784
301.802
301.82
301.838
301.862
302.012
302.174
302.184
302.196
302.201
302.205
302.208
302.211
302.213
302.215
302.216
302.217
302.216
302.215
302.213
302.212
302.211
302.212
302.215
302.227
302.237
302.245
302.251
302.29
304.043
303.727
296.928
)
;
    }
    sWall
    {
        type            wallHeatTransfer;
        Tinf            uniform 315.2;
        alphaWall       uniform 0.36;
        value           uniform 299.912;
    }
    nWall
    {
        type            wallHeatTransfer;
        Tinf            uniform 307.2;
        alphaWall       uniform 0.36;
        value           nonuniform List<scalar> 6(302.84 302.779 302.68 302.896 302.872 302.898);
    }
    sideWalls
    {
        type            empty;
    }
    glass1
    {
        type            wallHeatTransfer;
        Tinf            uniform 315.2;
        alphaWall       uniform 4.3;
        value           nonuniform List<scalar> 9(311.894 311.051 310.475 310.005 309.618 309.287 309 309.044 309.269);
    }
    glass2
    {
        type            wallHeatTransfer;
        Tinf            uniform 307.2;
        alphaWall       uniform 4.3;
        value           nonuniform List<scalar> 2(305.132 305.298);
    }
    sun
    {
        type            wallHeatTransfer;
        Tinf            uniform 305.2;
        alphaWall       uniform 0.24;
        value           nonuniform List<scalar> 
14
(
302.677
302.381
302.376
302.366
302.358
302.351
302.344
302.339
302.333
302.328
302.323
302.317
302.311
302.305
)
;
    }
    heatsource1
    {
        type            fixedGradient;
        gradient        uniform 0;
    }
    heatsource2
    {
        type            fixedGradient;
        gradient        uniform 0;
    }
    Table_master
    {
        type            zeroGradient;
    }
    Table_slave
    {
        type            zeroGradient;
    }
    inlet
    {
        type            fixedValue;
        value           uniform 290.15;
    }
    outlet
    {
        type            zeroGradient;
    }
}


// ************************************************************************* //
