/*--------------------------------*- C++ -*----------------------------------*\
  =========                 |
  \\      /  F ield         | OpenFOAM: The Open Source CFD Toolbox
   \\    /   O peration     | Website:  https://openfoam.org
    \\  /    A nd           | Version:  6
     \\/     M anipulation  |
\*---------------------------------------------------------------------------*/
FoamFile
{
    version     2.0;
    format      ascii;
    class       volVectorField;
    location    "200";
    object      U;
}
// * * * * * * * * * * * * * * * * * * * * * * * * * * * * * * * * * * * * * //

dimensions      [0 1 -1 0 0 0 0];

internalField   nonuniform List<vector> 
459
(
(0.072491 0.079674 0)
(-0.156639 0.0138104 0)
(-0.162942 0.0141627 0)
(-0.190528 0.0117427 0)
(-0.214557 0.00839158 0)
(-0.234484 0.00465223 0)
(-0.249594 0.000525797 0)
(-0.259123 -0.00411057 0)
(-0.262076 -0.00942643 0)
(-0.257094 -0.0156948 0)
(-0.24268 -0.0234288 0)
(-0.216187 -0.0330324 0)
(-0.176259 -0.0462836 0)
(-0.132718 -0.0669764 0)
(-0.121419 -0.0957794 0)
(0.0852744 -0.0389696 0)
(0.0491565 -0.0247908 0)
(0.0631577 -0.0152025 0)
(0.0784363 -0.0100335 0)
(0.086117 -0.00707387 0)
(0.0893451 -0.00488737 0)
(0.0905332 -0.003058 0)
(0.0900667 -0.00193618 0)
(0.0887665 -0.00137405 0)
(0.087291 -0.00107138 0)
(0.0858453 -0.000860779 0)
(0.084379 -0.000667614 0)
(0.0827459 -0.00040646 0)
(0.0806436 9.85829e-05 0)
(0.0773821 0.00123814 0)
(0.0716065 0.00355208 0)
(0.061851 0.00611181 0)
(0.0531201 0.00802107 0)
(-0.0146849 0.0263379 0)
(0.27975 0.169422 0)
(-0.166541 0.0438416 0)
(-0.138019 0.044869 0)
(-0.169799 0.0404502 0)
(-0.194301 0.0349654 0)
(-0.214533 0.0287768 0)
(-0.230109 0.0216235 0)
(-0.240439 0.0131318 0)
(-0.244608 0.00291331 0)
(-0.241242 -0.0093183 0)
(-0.230109 -0.0228577 0)
(-0.210366 -0.037322 0)
(-0.183461 -0.0539007 0)
(-0.156281 -0.0749755 0)
(-0.136219 -0.09307 0)
(-0.103165 -0.0741128 0)
(-0.0564436 -0.0626172 0)
(0.0934548 -0.0639068 0)
(0.0367812 -0.032881 0)
(0.045974 -0.0157971 0)
(0.0587814 -0.00891009 0)
(0.0658534 -0.00567769 0)
(0.0697385 -0.00265806 0)
(0.0720545 0.0011941 0)
(0.072381 0.00318983 0)
(0.0722241 0.00381208 0)
(0.0722666 0.00391677 0)
(0.0724467 0.00391246 0)
(0.072613 0.00395931 0)
(0.0727115 0.00423207 0)
(0.0726784 0.00510351 0)
(0.0719281 0.00752945 0)
(0.0678367 0.014266 0)
(0.0572088 0.0200891 0)
(0.0547328 0.0232613 0)
(-0.0653658 0.0555 0)
(0.463588 0.257111 0)
(-0.207747 0.0780534 0)
(-0.106354 0.0753411 0)
(-0.142534 0.064339 0)
(-0.164365 0.0539577 0)
(-0.182876 0.0427577 0)
(-0.197541 0.0300023 0)
(-0.207784 0.0151934 0)
(-0.212568 -0.001926 0)
(-0.210208 -0.0211012 0)
(-0.200752 -0.0418919 0)
(-0.184553 -0.0629759 0)
(-0.163843 -0.0837138 0)
(-0.142267 -0.103052 0)
(-0.119587 -0.114217 0)
(-0.0895682 -0.107527 0)
(-0.0652983 -0.106764 0)
(0.0682634 -0.0806154 0)
(0.0164775 -0.0437305 0)
(0.0270138 -0.0252465 0)
(0.0389364 -0.0177057 0)
(0.0470298 -0.0132847 0)
(0.0525941 -0.00952617 0)
(0.0560104 -0.00664526 0)
(0.0557114 -0.00447973 0)
(0.0555854 -0.0035122 0)
(0.0565139 -0.00309814 0)
(0.0578819 -0.00287757 0)
(0.0593103 -0.00269412 0)
(0.0608849 -0.00238514 0)
(0.0631816 -0.00158351 0)
(0.0676155 0.00175659 0)
(0.0665183 0.0201562 0)
(0.0522649 0.0329536 0)
(0.0626067 0.0397799 0)
(-0.110592 0.0841729 0)
(0.620505 0.329564 0)
(-0.26129 0.113617 0)
(-0.0692356 0.102372 0)
(-0.111706 0.0857853 0)
(-0.128293 0.0728121 0)
(-0.143451 0.0590054 0)
(-0.156225 0.0430497 0)
(-0.165917 0.0240876 0)
(-0.171161 0.00151677 0)
(-0.169627 -0.0244604 0)
(-0.161538 -0.0520661 0)
(-0.148459 -0.078712 0)
(-0.132874 -0.102547 0)
(-0.117201 -0.121852 0)
(-0.101435 -0.133263 0)
(-0.0847575 -0.133927 0)
(-0.0687422 -0.115571 0)
(-0.0364681 -0.0304181 0)
(0.0140884 -0.0771167 0)
(0.00954177 -0.0530095 0)
(0.0165075 -0.0354378 0)
(0.0253423 -0.0261957 0)
(0.0327893 -0.0201311 0)
(0.0390078 -0.0142276 0)
(0.0470642 -0.0110277 0)
(0.0587972 -0.010198 0)
(0.0695918 -0.00938424 0)
(0.0788445 -0.0083016 0)
(0.0861249 -0.00666863 0)
(0.0904787 -0.0043302 0)
(0.0903155 -0.00124533 0)
(0.0842087 0.00283372 0)
(0.0698502 0.00848155 0)
(0.055646 0.0307736 0)
(0.0402044 0.04933 0)
(0.0695017 0.0617824 0)
(-0.166231 0.107679 0)
(0.749254 0.388286 0)
(-0.313732 0.147924 0)
(-0.029755 0.11951 0)
(-0.0781515 0.100471 0)
(-0.0882838 0.0865567 0)
(-0.0986593 0.0712889 0)
(-0.10807 0.0530605 0)
(-0.115875 0.0307777 0)
(-0.120539 0.00356402 0)
(-0.118491 -0.0282737 0)
(-0.110806 -0.0614704 0)
(-0.100327 -0.0914829 0)
(-0.0893165 -0.116048 0)
(-0.0794308 -0.134512 0)
(-0.0707127 -0.146591 0)
(-0.0613135 -0.151993 0)
(-0.0457063 -0.143593 0)
(-0.0222988 -0.102925 0)
(-0.000482037 -0.0837977 0)
(0.00266482 -0.0595551 0)
(0.00765306 -0.0431139 0)
(0.0139117 -0.0334074 0)
(0.0202266 -0.0270471 0)
(0.0269545 -0.0219108 0)
(0.0351101 -0.0179279 0)
(0.0445347 -0.0158173 0)
(0.0535688 -0.0142697 0)
(0.0618672 -0.0121133 0)
(0.0690346 -0.00848204 0)
(0.0742369 -0.00276352 0)
(0.0762469 0.00481431 0)
(0.0736598 0.0136918 0)
(0.066404 0.0243384 0)
(0.0569266 0.0421316 0)
(0.0411071 0.0631354 0)
(0.0767374 0.0855166 0)
(-0.056208 0.121774 0)
(0.0479316 0.0142731 0)
(-0.0801206 -0.0432688 0)
(-0.300031 -0.067857 0)
(0.836469 0.439873 0)
(-0.357629 0.17631 0)
(0.00180128 0.11943 0)
(-0.0406746 0.108534 0)
(-0.0451044 0.0953517 0)
(-0.0506895 0.0790647 0)
(-0.0557021 0.0596583 0)
(-0.0600511 0.0356913 0)
(-0.0625258 0.00529645 0)
(-0.0564497 -0.0322006 0)
(-0.0486941 -0.069885 0)
(-0.0415958 -0.101007 0)
(-0.0361426 -0.124309 0)
(-0.0330459 -0.140689 0)
(-0.0321083 -0.151753 0)
(-0.031121 -0.158716 0)
(-0.0237035 -0.155084 0)
(-0.0127621 -0.120259 0)
(-0.00479961 -0.0865849 0)
(-0.0033285 -0.0627357 0)
(-0.00097117 -0.0476272 0)
(0.00241288 -0.0383817 0)
(0.00650591 -0.0325543 0)
(0.0115208 -0.0283371 0)
(0.0175819 -0.0254452 0)
(0.0243813 -0.0239459 0)
(0.031416 -0.0226324 0)
(0.0384945 -0.0203206 0)
(0.0454515 -0.0159034 0)
(0.051824 -0.00832769 0)
(0.0574088 0.0027519 0)
(0.05922 0.0155722 0)
(0.0582001 0.0295874 0)
(0.0569039 0.0468764 0)
(0.0509194 0.0676259 0)
(0.0840662 0.0946676 0)
(0.0418646 0.115819 0)
(0.101925 0.0714186 0)
(0.128571 0.0456034 0)
(-0.152426 -0.0164026 0)
(0.862266 0.486408 0)
(-0.377223 0.167597 0)
(0.0219985 0.0733643 0)
(0.0130792 0.106965 0)
(0.00884209 0.106768 0)
(0.00373417 0.0860708 0)
(0.0021222 0.0624826 0)
(0.00198638 0.0368503 0)
(0.00292357 0.00237431 0)
(0.018954 -0.041294 0)
(0.0249148 -0.0778058 0)
(0.0261043 -0.10557 0)
(0.0236571 -0.125271 0)
(0.0180106 -0.138636 0)
(0.00976881 -0.148113 0)
(0.000978412 -0.157003 0)
(-0.001542 -0.160571 0)
(-0.00163628 -0.126376 0)
(-0.00421723 -0.0857926 0)
(-0.00791255 -0.0617961 0)
(-0.0096038 -0.0482006 0)
(-0.0100346 -0.0401935 0)
(-0.00932851 -0.0352722 0)
(-0.007609 -0.0321473 0)
(-0.00496154 -0.0303549 0)
(-0.00160614 -0.0295225 0)
(0.00239639 -0.0287439 0)
(0.00689226 -0.0269925 0)
(0.0121102 -0.0231094 0)
(0.0182059 -0.0156866 0)
(0.0259248 -0.00332753 0)
(0.0348029 0.0121676 0)
(0.040665 0.0274882 0)
(0.0475931 0.0435508 0)
(0.0530212 0.0607095 0)
(0.0823039 0.0832841 0)
(0.0908942 0.0903534 0)
(0.133483 0.0537585 0)
(0.179078 0.0409746 0)
(-0.0277621 0.0981987 0)
(0.96178 0.501493 0)
(-0.122176 0.152306 0)
(0.0917043 0.00321925 0)
(0.13701 0.0435799 0)
(0.11472 0.0743337 0)
(0.094665 0.0648684 0)
(0.0891204 0.0410328 0)
(0.0902337 0.0129144 0)
(0.100678 -0.0215863 0)
(0.110722 -0.0527411 0)
(0.109651 -0.0793756 0)
(0.10073 -0.1003 0)
(0.0867387 -0.11551 0)
(0.0693569 -0.126164 0)
(0.0497971 -0.134714 0)
(0.0308809 -0.145525 0)
(0.0187372 -0.155541 0)
(0.00981734 -0.12266 0)
(-0.00273223 -0.0788719 0)
(-0.013382 -0.0564359 0)
(-0.0195152 -0.0453159 0)
(-0.0239416 -0.0388103 0)
(-0.0270744 -0.0348536 0)
(-0.0292889 -0.032541 0)
(-0.0308533 -0.0314265 0)
(-0.0319804 -0.0310705 0)
(-0.0327314 -0.0308199 0)
(-0.0329814 -0.0299331 0)
(-0.0323977 -0.0276579 0)
(-0.030422 -0.0232255 0)
(-0.0256848 -0.0158346 0)
(-0.0128777 -0.00455587 0)
(-0.000584099 0.00942944 0)
(0.0118038 0.0218487 0)
(0.0230673 0.0311307 0)
(0.0477405 0.0422062 0)
(0.0667539 0.0331661 0)
(0.0853529 -0.00508573 0)
(0.149047 0.0494348 0)
(-0.50173 0.237219 0)
(1.09393 0.454851 0)
(0.52853 0.300147 0)
(0.533011 0.224347 0)
(0.508375 0.19398 0)
(0.421332 0.172991 0)
(0.343564 0.136558 0)
(0.298411 0.0937156 0)
(0.274069 0.0519374 0)
(0.257277 0.0126593 0)
(0.232778 -0.0240307 0)
(0.204897 -0.0540369 0)
(0.175217 -0.0760453 0)
(0.144263 -0.0909987 0)
(0.112501 -0.101095 0)
(0.0803174 -0.109777 0)
(0.0519443 -0.123176 0)
(0.0327391 -0.140552 0)
(0.0181554 -0.106854 0)
(-0.00316152 -0.063671 0)
(-0.0215579 -0.0468806 0)
(-0.0314297 -0.0400519 0)
(-0.0390754 -0.0357305 0)
(-0.0456851 -0.0328551 0)
(-0.0517643 -0.0310288 0)
(-0.0577649 -0.0299644 0)
(-0.0640425 -0.0293165 0)
(-0.0708035 -0.0285376 0)
(-0.0781504 -0.0269069 0)
(-0.0861938 -0.0236139 0)
(-0.0952023 -0.0178338 0)
(-0.105646 -0.00874748 0)
(-0.11774 0.00417298 0)
(-0.128764 0.0200629 0)
(-0.145844 0.0385082 0)
(-0.1751 0.0588382 0)
(-0.218266 0.0785853 0)
(-0.280825 0.0911729 0)
(-0.351714 0.0936203 0)
(-0.427015 0.087778 0)
(-0.702247 0.0733539 0)
(-0.360586 0.0876862 0)
(0.171767 0.17391 0)
(0.26637 0.172951 0)
(0.260249 0.144043 0)
(0.260063 0.103625 0)
(0.261279 0.0606479 0)
(0.256689 0.0219988 0)
(0.244283 -0.00933536 0)
(0.222858 -0.0319449 0)
(0.195149 -0.0473041 0)
(0.163281 -0.0571425 0)
(0.128732 -0.0633867 0)
(0.0922233 -0.0692444 0)
(0.0611718 -0.0835164 0)
(0.0356596 -0.112078 0)
(0.0147575 -0.0710536 0)
(-0.0112089 -0.0332943 0)
(-0.0350877 -0.0266088 0)
(-0.0462439 -0.0253176 0)
(-0.0549181 -0.0245666 0)
(-0.0631665 -0.0243831 0)
(-0.0712016 -0.0246283 0)
(-0.0795134 -0.0251437 0)
(-0.088596 -0.0256818 0)
(-0.09868 -0.0257648 0)
(-0.109643 -0.0246363 0)
(-0.120944 -0.0212949 0)
(-0.131549 -0.0146326 0)
(-0.14008 -0.00361612 0)
(-0.145344 0.0117027 0)
(-0.148317 0.0311274 0)
(-0.150511 0.0547825 0)
(-0.153913 0.0810182 0)
(-0.159501 0.104281 0)
(-0.163946 0.111488 0)
(-0.145957 0.0796505 0)
(-0.083861 -0.034941 0)
(-0.294521 -0.249099 0)
(-0.166746 0.260853 0)
(0.091919 0.18048 0)
(0.0955324 0.134628 0)
(0.126181 0.117099 0)
(0.161052 0.0907521 0)
(0.186819 0.0614686 0)
(0.199309 0.0389136 0)
(0.198692 0.0260097 0)
(0.188905 0.0174514 0)
(0.171913 0.0105591 0)
(0.149964 0.00537306 0)
(0.124295 0.0013766 0)
(0.0952639 -0.0059861 0)
(0.0697507 -0.0367638 0)
(0.0259627 -0.0941809 0)
(-0.0181758 -0.0149314 0)
(-0.0373986 0.0512475 0)
(-0.0564525 0.03628 0)
(-0.0665279 0.0349101 0)
(-0.0751254 0.0396605 0)
(-0.0831223 0.0434807 0)
(-0.0903442 0.0465705 0)
(-0.0969684 0.0493112 0)
(-0.10324 0.0514648 0)
(-0.109306 0.0527388 0)
(-0.115185 0.0529186 0)
(-0.120762 0.0517737 0)
(-0.125651 0.0488584 0)
(-0.128677 0.0448102 0)
(-0.127708 0.0440274 0)
(-0.120519 0.0492806 0)
(-0.106048 0.0618077 0)
(-0.0853501 0.0811457 0)
(-0.0603909 0.101177 0)
(-0.0343732 0.111769 0)
(0.0115854 0.0915921 0)
(0.144197 0.00888644 0)
(-0.202543 -0.164315 0)
(-0.18289 -0.388676 0)
(-0.472198 -0.111735 0)
(-0.354285 0.141152 0)
(-0.187009 0.0326414 0)
(-0.105669 0.00975682 0)
(-0.00820873 0.0135422 0)
(0.0694346 -0.0103831 0)
(0.119065 -0.0378852 0)
(0.151033 -0.0641009 0)
(0.165761 -0.0887871 0)
(0.167199 -0.110317 0)
(0.159112 -0.128073 0)
(0.144561 -0.144301 0)
(0.125848 -0.160794 0)
(0.103698 -0.179776 0)
(0.0807546 -0.205749 0)
(-0.000377247 -0.228781 0)
(-0.0714479 -0.206424 0)
(-0.0647143 -0.190012 0)
(-0.0682517 -0.201885 0)
(-0.0801234 -0.199649 0)
(-0.0911604 -0.197337 0)
(-0.100946 -0.195543 0)
(-0.109897 -0.193691 0)
(-0.117987 -0.191194 0)
(-0.125067 -0.187479 0)
(-0.130951 -0.181948 0)
(-0.135339 -0.173965 0)
(-0.13781 -0.1628 0)
(-0.137832 -0.14754 0)
(-0.134538 -0.128335 0)
(-0.125746 -0.107459 0)
(-0.107737 -0.0848617 0)
(-0.0778767 -0.0600337 0)
(-0.0382627 -0.0321922 0)
(0.031388 0.00233029 0)
(0.0889981 0.000805444 0)
(0.143922 -0.0287253 0)
(0.192884 -0.0817667 0)
(-0.139571 -0.159301 0)
)
;

boundaryField
{
    floor
    {
        type            noSlip;
    }
    ceiling
    {
        type            noSlip;
    }
    sWall
    {
        type            noSlip;
    }
    nWall
    {
        type            noSlip;
    }
    sideWalls
    {
        type            empty;
    }
    glass1
    {
        type            noSlip;
    }
    glass2
    {
        type            noSlip;
    }
    sun
    {
        type            noSlip;
    }
    heatsource1
    {
        type            noSlip;
    }
    heatsource2
    {
        type            noSlip;
    }
    Table_master
    {
        type            noSlip;
    }
    Table_slave
    {
        type            noSlip;
    }
    inlet
    {
        type            fixedValue;
        value           uniform (0.277164 -0.114805 0);
    }
    outlet
    {
        type            zeroGradient;
    }
}


// ************************************************************************* //
