/*--------------------------------*- C++ -*----------------------------------*\
  =========                 |
  \\      /  F ield         | OpenFOAM: The Open Source CFD Toolbox
   \\    /   O peration     | Website:  https://openfoam.org
    \\  /    A nd           | Version:  6
     \\/     M anipulation  |
\*---------------------------------------------------------------------------*/
FoamFile
{
    version     2.0;
    format      ascii;
    class       volScalarField;
    location    "1400";
    object      alphat;
}
// * * * * * * * * * * * * * * * * * * * * * * * * * * * * * * * * * * * * * //

dimensions      [1 -1 -1 0 0 0 0];

internalField   nonuniform List<scalar> 
459
(
0.00132942
0.0014581
0.00148745
0.00156125
0.0016305
0.00169631
0.00176222
0.00182179
0.00186117
0.00187355
0.00185317
0.00179645
0.00170201
0.00157473
0.00142989
0.00059883
0.0007215
0.000812848
0.000812761
0.000785913
0.000749323
0.000702007
0.000654916
0.000612282
0.000574555
0.000541252
0.000511756
0.000485545
0.000462097
0.000440567
0.00041991
0.000398714
0.000385677
0.000353642
0.0018052
0.00454147
0.00439985
0.00513798
0.00586732
0.00658319
0.00718334
0.00765917
0.00807678
0.00840266
0.00859608
0.00861541
0.00839798
0.00778226
0.00610141
0.00146995
0.000876826
0.000633237
0.0013396
0.00187572
0.00227062
0.00248491
0.00247521
0.0019605
0.00168169
0.0014847
0.00133465
0.00121603
0.00111985
0.00103806
0.000961678
0.000886991
0.000820036
0.000760587
0.000905552
0.000468748
0.00219669
0.00620428
0.00549762
0.00686539
0.00756253
0.00808236
0.0084839
0.00882863
0.00919229
0.00955684
0.00987588
0.0100961
0.0101567
0.00994665
0.00916836
0.0069311
0.00151663
0.00121728
0.00179009
0.00233068
0.00282993
0.00317401
0.003089
0.000999047
0.000879588
0.000783629
0.000706333
0.000643509
0.000591911
0.000549194
0.000513888
0.000485393
0.000523977
0.000606511
0.00102928
0.000547998
0.00256866
0.00787495
0.00555965
0.00726852
0.00786119
0.00808417
0.00825103
0.00846738
0.00878538
0.00918249
0.00959724
0.00996283
0.0102078
0.0102381
0.00999587
0.00911513
0.00612997
0.0017858
0.00221457
0.00287836
0.00354802
0.00409202
0.00442286
0.00413341
0.00112482
0.00102036
0.000944917
0.000886709
0.000836854
0.000792184
0.000749225
0.000704429
0.000653041
0.000613329
0.000635886
0.00121381
0.000606536
0.00294559
0.00999447
0.00614365
0.0070697
0.00780687
0.0078798
0.00785597
0.00801903
0.00831248
0.00873563
0.00920694
0.00963523
0.00991461
0.00998606
0.00984694
0.00945757
0.00858447
0.00714837
0.00665547
0.00651279
0.00647933
0.00645072
0.00636574
0.00608055
0.00507122
0.00457799
0.00428478
0.00405702
0.00382253
0.00348964
0.00306555
0.00256849
0.00202925
0.00149946
0.00111181
0.00117992
0.000796954
0.000743238
0.000887626
0.000994103
0.00334359
0.0122946
0.00838839
0.00721898
0.00776062
0.00785876
0.00781535
0.00791478
0.00814557
0.00854147
0.00904671
0.00952408
0.0098239
0.00986024
0.00965421
0.00931391
0.00895076
0.00862143
0.00844805
0.00829893
0.00809839
0.00784856
0.00755665
0.00719644
0.00669586
0.00625733
0.00587807
0.0055246
0.0051739
0.00479356
0.0043315
0.00377295
0.00312214
0.00242128
0.00181956
0.00135367
0.00107295
0.000948243
0.00136719
0.00104269
0.00369621
0.0138491
0.0115215
0.00926473
0.00887718
0.00852129
0.00817519
0.0080478
0.00820828
0.00863718
0.00921409
0.00974485
0.0100409
0.0100058
0.0096906
0.00929642
0.00906852
0.00907425
0.00911853
0.00900043
0.00870044
0.00828406
0.00779977
0.00727202
0.00672722
0.00623505
0.00579852
0.00540359
0.00504702
0.00473419
0.00446378
0.00408353
0.0035719
0.00296406
0.00240758
0.00190084
0.00157389
0.00148806
0.00151161
0.00118879
0.0037542
0.0120479
0.0109013
0.0100532
0.00924602
0.00846449
0.00800486
0.00798134
0.00836953
0.00904042
0.00977989
0.01034
0.0105348
0.0103173
0.00982008
0.00935772
0.00921756
0.00931691
0.0092452
0.00888719
0.00832742
0.00765778
0.00695425
0.00628714
0.00571015
0.00523859
0.00485264
0.00453748
0.00429184
0.00412096
0.00402866
0.00397517
0.00372341
0.00333752
0.00302278
0.00289584
0.00305655
0.00355941
0.00456343
0.00179842
0.00364411
0.00429949
0.00473385
0.00484895
0.00511733
0.00570258
0.0066161
0.00778752
0.00905754
0.0102107
0.0110221
0.0113138
0.0110582
0.0104066
0.00970349
0.00931291
0.00910432
0.00885928
0.00840102
0.00772193
0.00691454
0.00609264
0.00535479
0.00475669
0.00429891
0.00394875
0.00367201
0.00344702
0.00326027
0.00310116
0.00296092
0.00283985
0.00274978
0.00269339
0.00268887
0.00272328
0.00272237
0.00262058
0.00243648
0.00166847
0.00171504
0.00438756
0.00796437
0.0102691
0.011775
0.0126833
0.013045
0.0129408
0.0124621
0.0117129
0.0106711
0.00964814
0.00890263
0.00841753
0.00793548
0.00731534
0.00656308
0.00576053
0.00499748
0.00434268
0.00383443
0.00346654
0.0032031
0.00301033
0.00286636
0.00275946
0.00268415
0.00263922
0.0026273
0.00264593
0.00268454
0.00274149
0.00281079
0.00287079
0.00289281
0.00287707
0.00255018
0.00137596
0.00261135
0.00812677
0.0110879
0.0118478
0.0120581
0.0118528
0.0112691
0.0104476
0.00952542
0.00863118
0.00779454
0.00711136
0.00656573
0.00602913
0.00543715
0.00482392
0.0042431
0.00373827
0.00333066
0.00301868
0.00278195
0.0026142
0.00250085
0.00243098
0.00239789
0.00239621
0.00241951
0.00246492
0.00253702
0.00263105
0.00274338
0.00286742
0.00298862
0.00309009
0.0031714
0.00318579
0.00220219
0.00142017
0.00231155
0.00245307
0.00255457
0.00273573
0.00261966
0.00251697
0.00243136
0.0023082
0.00214331
0.00194648
0.00172851
0.0015091
0.00131484
0.00116034
0.00104474
0.000959539
0.000896138
0.000848729
0.000814274
0.000791264
0.0007785
0.000774818
0.000779356
0.00078989
0.000805806
0.000826867
0.000853117
0.00088491
0.000923046
0.000968246
0.00102021
0.00107946
0.00114645
0.00122161
0.00130466
0.00139981
0.00142591
0.00129784
0.00120983
0.00137403
)
;

boundaryField
{
    floor
    {
        type            compressible::alphatWallFunction;
        Prt             0.85;
        value           nonuniform List<scalar> 
29
(
0.000201494
8.41667e-05
0.000102319
0.000115592
0.000115579
0.000111698
0.000106382
9.94611e-05
9.2517e-05
8.61775e-05
8.05226e-05
7.54927e-05
7.10054e-05
6.6991e-05
6.33764e-05
6.0037e-05
5.68136e-05
5.34849e-05
5.14265e-05
4.63295e-05
4.63289e-05
6.44051e-05
7.65162e-05
8.53214e-05
0.000201491
8.41657e-05
8.93003e-05
0.000172498
0.000248996
)
;
    }
    ceiling
    {
        type            compressible::alphatWallFunction;
        Prt             0.85;
        value           nonuniform List<scalar> 
43
(
0.000317196
0.000335285
0.000348193
0.000371255
0.000356658
0.000343658
0.000332771
0.000317028
0.0002958
0.000270224
0.000241565
0.000212311
0.00018601
0.000164777
0.000148678
0.000136682
0.000127674
0.000120889
0.00011593
0.000112604
0.000110755
0.00011022
0.000110879
0.000112406
0.000114708
0.000117746
0.00012152
0.000126072
0.000131507
0.000137915
0.000145238
0.000153537
0.000162855
0.000173237
0.000184624
0.00019757
0.000201104
0.000183693
0.00017162
0.000194085
0.000484193
0.000563649
0.000355144
)
;
    }
    sWall
    {
        type            compressible::alphatWallFunction;
        Prt             0.85;
        value           uniform 0.000315925;
    }
    nWall
    {
        type            compressible::alphatWallFunction;
        Prt             0.85;
        value           nonuniform List<scalar> 6(0.000141216 0.000148038 0.000168346 0.000193992 0.00019998 0.000193736);
    }
    sideWalls
    {
        type            empty;
    }
    glass1
    {
        type            compressible::alphatWallFunction;
        Prt             0.85;
        value           nonuniform List<scalar> 9(0.000183109 0.000245929 0.000296392 0.000343542 0.000390658 0.000439776 0.000482842 0.00049003 0.000476911);
    }
    glass2
    {
        type            compressible::alphatWallFunction;
        Prt             0.85;
        value           nonuniform List<scalar> 2(0.000248751 0.000231724);
    }
    sun
    {
        type            compressible::alphatWallFunction;
        Prt             0.85;
        value           nonuniform List<scalar> 
14
(
0.000187875
0.000205305
0.000209259
0.000219165
0.000228412
0.000237161
0.000245885
0.000253737
0.000258915
0.000260538
0.000257862
0.000250399
0.000237914
0.000220966
)
;
    }
    heatsource1
    {
        type            compressible::alphatWallFunction;
        Prt             0.85;
        value           nonuniform List<scalar> 3(0.000105648 0.000126484 0.000141589);
    }
    heatsource2
    {
        type            compressible::alphatWallFunction;
        Prt             0.85;
        value           nonuniform List<scalar> 4(0.000207076 0.000124938 0.000124936 0.000213354);
    }
    Table_master
    {
        type            compressible::alphatWallFunction;
        Prt             0.85;
        value           nonuniform List<scalar> 9(0.000142282 0.000125331 0.000111518 0.000100245 9.09714e-05 8.32723e-05 7.68357e-05 7.14688e-05 6.71033e-05);
    }
    Table_slave
    {
        type            compressible::alphatWallFunction;
        Prt             0.85;
        value           nonuniform List<scalar> 9(0.000159878 0.000145283 0.000134635 0.000126352 0.000119206 0.00011276 0.00010652 9.99674e-05 9.23874e-05);
    }
    inlet
    {
        type            fixedValue;
        value           uniform 1.94e-05;
    }
    outlet
    {
        type            zeroGradient;
    }
}


// ************************************************************************* //
