/*--------------------------------*- C++ -*----------------------------------*=========                 |
  \      /  F ield         | OpenFOAM: The Open Source CFD Toolbox
   \    /   O peration     | Website:  https://openfoam.org
    \  /    A nd           | Version:  6
     \/     M anipulation  |
\*---------------------------------------------------------------------------*/
FoamFile
{
    version     2.0;
    format      ascii;
    class       volScalarField;
    location    "1400";
    object      PPD;
}
// * * * * * * * * * * * * * * * * * * * * * * * * * * * * * * * * * * * * * //

dimensions      [0 0 0 0 0 0 0];

internalField   nonuniform List<scalar> 
459
(
59.28402880112357
47.54187149741871
46.12607302830602
44.87544140248468
44.06006448057611
43.57194617015211
43.44447120460831
43.64073485856148
44.18110426070362
45.127137248964374
46.53479559432533
48.495650498954966
51.1277186033054
52.936643234524496
53.22287802784966
56.890125033762416
56.16281027531215
55.87687246212222
55.98086159493119
56.13682023168479
56.292746720312934
56.36682981539146
56.13033182676674
56.10869396866796
56.17169179994559
56.241766082746935
56.36162872676921
56.51177294697977
56.68566294210931
56.98673126288019
57.48170466855593
57.953347732906686
58.16050535574188
58.832969689053215
57.23794656852735
48.6799278898246
48.22807818881318
47.082160384577826
46.404449971199774
46.017260876718666
45.90864222318937
46.007204323998295
46.24744403459445
46.721604508935734
47.54125914091749
48.87334464737476
50.79780058288547
52.44236501392811
52.52039595689999
52.546407458042516
52.6504591180107
55.000989282677786
55.61684618447996
55.382764315832524
55.48680697296112
55.29481220150703
55.05323908652403
54.99572642506397
55.04776940735844
55.132493235152275
55.17435253213449
55.23288226532836
55.27080961379232
55.34229078261476
55.42526351734446
55.58571582399468
55.99676620858904
56.91608447445693
57.253442434147544
56.85517123111208
59.503241240529036
48.8436587634871
50.145540901341526
49.64004508381759
49.48249331595561
49.44570031650564
49.51432322560072
49.545782774247634
49.27189770442869
48.87917133643225
48.71481226730395
49.03158854932154
50.070378640111365
51.84592444497709
52.31232593692523
52.46837472439635
52.572419535180806
49.98162765872807
52.1227675289309
52.77869540231465
53.27511120135578
53.83920378061778
54.22653437834234
54.44659827539331
54.900544248471114
55.24560434360739
55.420685261681136
55.514151207384565
55.57597578913534
55.63197576745885
55.58867944819039
55.38885148534692
55.495853196752655
56.48792139725101
56.040655610662625
53.50354496551781
63.53529724601679
49.17605935229968
51.68326202585054
52.25225460171643
53.21658447194791
54.07434568744897
54.73620996389206
54.38579467978674
52.87440572319568
50.83860880987045
49.178091955282326
48.38723309847499
48.62268078652883
49.81519981503293
51.538346812118505
52.49438504220169
51.544520175797075
49.375003562725766
49.38400166564448
50.88542063210364
52.32812672100921
53.55668603554005
54.604953729090475
55.41099870901608
55.74804701259774
55.73556275009704
55.74587214197709
55.84300289045081
55.972275056722324
56.175112988690145
56.57332982500836
57.22650399175599
58.45183141036509
58.10631693983434
57.30620110311424
54.96867147787611
51.11494172001555
68.21316237210326
50.29916453247243
53.18086302355047
54.78557619752139
57.45086055320977
60.45312975528815
61.583923350548645
58.843383968884936
54.865500235124216
51.0893676307688
48.45999559104424
47.07512608768051
46.974294128733234
47.98416632276698
49.60208127000187
51.038812769911665
51.34861697473822
51.18945365697756
51.68208381265239
53.02755412122783
54.67655935111212
56.19151724375559
57.476759264955255
58.41929514174872
58.91047734537188
59.286435638610115
59.368229432972065
59.417849221815125
59.41848036797703
59.347304453484064
59.334166628524855
59.39517826199601
59.470861896207296
58.71324618117689
57.26696897173087
54.016722389231155
53.670040256893984
60.71311260702812
60.012403066401355
51.2181624603064
72.69607422744002
52.6326528581152
56.06787957927574
57.72611516379921
61.481658210256654
63.009958096107134
61.960149503728694
57.643218845458236
53.35339551386832
49.45646699780883
46.67537133312514
45.3183473267693
45.46525410077007
46.78903934462583
48.89765327374713
51.112300289542155
52.76959413472641
53.92335019601515
55.2543589694258
56.947699100259804
57.97924833459272
58.807129742110924
59.47828234889942
60.01924283315853
60.45635210327106
60.815738445805934
61.07210102752386
61.2769775492377
61.353756049086
61.3281662942852
61.14895232153168
60.89267778978318
60.50772624421964
59.32457025168626
57.46082710357125
54.020288298956295
53.905956627808145
54.731830084620526
54.67687004689655
55.36381981589179
76.86991915779032
57.80990494195039
64.22252286119742
62.891057771688324
62.68072624477994
61.115508806298806
58.07306492265036
53.955651644275214
49.60057594549815
45.92119451463623
43.670807816661636
43.1624319393423
44.248138835290156
46.610982062350736
49.797528452246226
53.22503865049518
55.43478684842154
56.734343423415645
57.901541582342155
58.93630913292235
59.83904144057302
60.55908945236832
61.12333821485082
61.55836182473548
61.915928847517634
62.170935723039
62.37469399691428
62.451045440311105
62.476488815392706
62.3492364458651
62.0434746185195
61.66058873859629
61.20017150644265
60.58476692936021
58.62498131198319
55.40272559861965
54.14202496167511
53.501587073006874
52.120174045315245
56.81091429819567
82.47795026686066
74.27224866077407
72.12638500038331
67.14475708149902
63.95147412664233
59.32283571700556
53.4825488981708
47.575710977042675
42.9263653508208
40.22795925272545
39.694374095732876
41.199201822462534
44.310336759632136
48.55798038372506
53.567876562234375
55.77287076822634
57.56464648247088
59.0137920490781
60.12215973060796
60.99522297511955
61.66058873859629
62.22189615420685
62.6290736938518
62.933848417558515
63.16207460802634
63.314052050229
63.38998789221157
63.38998789221157
63.314052050229
63.16207460802634
62.908470978555144
62.476488815392706
62.017972194196055
61.481658210256654
60.89267778978318
60.30216495676813
59.03183551253388
58.29461482100317
55.08858917290203
50.70935229676716
89.23501384960427
84.92880543625921
78.34279745927671
69.72796761699433
58.206685861087685
46.235950002389075
37.38993167540678
32.46837636479209
31.09610953711325
32.656410924993764
36.499457689357826
42.161110569618586
48.834781990993065
53.248901402154125
56.37069717967558
58.781287782605446
60.32786949289476
61.37934271088297
62.145450340609095
62.75612786648597
63.23808085847709
63.38740543627041
63.387559188556814
63.35854522690714
63.303004361477996
63.16652646275793
62.94852575562862
62.63364301116733
62.23351954675786
61.75141650556955
61.177358135301695
60.54472278125067
59.967376465350156
59.26585738692491
58.50417512359813
57.802004701130244
57.30150969593448
56.935897315737535
56.23231530666751
54.6985151636152
99.02590340278442
70.74503331366083
33.16618443310111
8.278663090814206
5.611292582914089
12.808804098565972
24.65317306614415
36.3476864036835
44.78912937833731
51.506507747364424
55.51281610533086
58.27936765680101
59.31911360414472
60.25524012613189
60.96608743560584
61.47223739397998
61.834313696640216
62.05673782885533
62.15968012841427
62.17475780194155
62.11301839084915
62.000134845674665
61.851054270428975
61.6557450509393
61.43589753908524
61.169977027543744
60.921981974677955
60.68261079093284
60.471175699444814
60.341713135471494
60.24648660519995
60.18510055871299
60.1840806561996
60.27520262963621
60.7580192464751
62.3765480509686
68.21188320648089
60.16267735590323
93.00840398186499
26.56151919660519
5.03694814112454
12.051718611227216
22.271209660712742
30.885251811983366
38.328503402309686
44.527257229472134
49.452242524302676
53.19121715644888
55.72313086151247
57.499390872611265
58.79338291528189
59.70388593083796
60.33059020367579
60.76932862914315
61.072642329289415
61.274299085687055
61.385379541819596
61.4703178396717
61.50364848220288
61.525538808316675
61.50612346144743
61.47054350301612
61.39403754220641
61.33474844095899
61.27834474596178
61.24596107720535
61.26587157391002
61.43545282060198
61.77639470997877
62.33989053807223
62.98622918645135
63.60477742754286
64.3731275790751
67.52809453689491
62.26456513866918
66.83379573301818
20.117125765004474
25.538225475334045
20.84727624964485
8.110996051045177
22.049791705756178
31.13126872811293
37.517873678221434
42.75681657981285
47.13275052609724
50.77222355450176
53.70154406965778
55.986337666739786
57.62683726487753
58.79369669045672
59.54030908956211
60.03958470696613
60.31766090730981
60.433867274513744
60.49895868731365
60.511885597182854
60.491380707311976
60.5017625166225
60.51983908821887
60.528707786270445
60.5812227809189
60.62424846062577
60.71656646067334
60.8150491263324
60.9645813369492
61.21216019701217
61.53846149121639
62.12226878812032
63.10218907659071
64.85379382003424
66.44461433797072
66.6670917033986
66.91378039333061
63.138994434479905
63.362140393105086
58.13983172811976
)
;

boundaryField
{
    ".*"
    {
        type            zeroGradient;
    }
}


// ************************************************************************* //
