// -*- C++ -*-
// File generated by PyFoam - sorry for the ugliness

FoamFile
{
 version 2.0;
 format ascii;
 class volVectorField;
 location "1400";
 object U;
}

dimensions [ 0 1 -1 0 0 0 0 ];

internalField nonuniform List<vector> 459
(
  (0.0326548 0.088429 0)
  (-0.172096 0.0266896 0)
  (-0.197668 0.0179109 0)
  (-0.228472 0.0118104 0)
  (-0.249998 0.00515596 0)
  (-0.261254 -0.00180034 0)
  (-0.260748 -0.00906161 0)
  (-0.247935 -0.0165749 0)
  (-0.22382 -0.0235343 0)
  (-0.190606 -0.0288212 0)
  (-0.151852 -0.031622 0)
  (-0.111427 -0.0316426 0)
  (-0.0729719 -0.0291802 0)
  (-0.0415128 -0.0255846 0)
  (-0.0320907 -0.0226268 0)
  (-0.0039931 0.00902492 0)
  (-0.0292066 -0.0192465 0)
  (-0.00417246 -0.0294388 0)
  (0.0205465 -0.0221123 0)
  (0.0377692 -0.0149812 0)
  (0.0510707 -0.00962042 0)
  (0.059181 -0.0057185 0)
  (0.0633136 -0.00367354 0)
  (0.0651941 -0.0028021 0)
  (0.0661686 -0.00238602 0)
  (0.066794 -0.00211464 0)
  (0.0671529 -0.00189317 0)
  (0.0671792 -0.00163498 0)
  (0.0666665 -0.00116204 0)
  (0.0650434 -8.97337e-05 0)
  (0.0610899 0.00211835 0)
  (0.0534766 0.0044553 0)
  (0.0465924 0.00644567 0)
  (-0.0140394 0.0229466 0)
  (0.208682 0.180636 0)
  (-0.158855 0.0702197 0)
  (-0.157949 0.053228 0)
  (-0.189432 0.0403714 0)
  (-0.210556 0.0259564 0)
  (-0.221922 0.0100431 0)
  (-0.22197 -0.0074351 0)
  (-0.210179 -0.0254721 0)
  (-0.188138 -0.0415223 0)
  (-0.158379 -0.0531327 0)
  (-0.124452 -0.0588422 0)
  (-0.0898406 -0.0584256 0)
  (-0.0576716 -0.0524657 0)
  (-0.0312486 -0.0425227 0)
  (-0.0147635 -0.0306362 0)
  (-0.00120777 -0.0128066 0)
  (-0.00251535 0.0170159 0)
  (0.0712419 0.0374827 0)
  (0.0299377 -0.0202674 0)
  (0.0380331 -0.0339929 0)
  (0.0500119 -0.0295853 0)
  (0.0594097 -0.0207737 0)
  (0.0659041 -0.012528 0)
  (0.0686158 -0.00529696 0)
  (0.0690752 -0.00125927 0)
  (0.0689908 0.000432329 0)
  (0.0690809 0.00118945 0)
  (0.0692678 0.0016498 0)
  (0.0694012 0.00203224 0)
  (0.0694381 0.00252159 0)
  (0.0693221 0.00346077 0)
  (0.0685093 0.0057769 0)
  (0.0645009 0.0121881 0)
  (0.0543898 0.0175838 0)
  (0.0502083 0.0212999 0)
  (-0.0556079 0.049423 0)
  (0.369649 0.269742 0)
  (-0.173539 0.111107 0)
  (-0.118033 0.0855615 0)
  (-0.147937 0.0629407 0)
  (-0.166359 0.0393334 0)
  (-0.176359 0.0136204 0)
  (-0.175313 -0.014538 0)
  (-0.162675 -0.043025 0)
  (-0.141214 -0.0673706 0)
  (-0.114087 -0.0839136 0)
  (-0.084791 -0.0910124 0)
  (-0.0560113 -0.0890565 0)
  (-0.0297256 -0.0791331 0)
  (-0.00792423 -0.0631838 0)
  (0.00829601 -0.0418709 0)
  (0.0192896 -0.0163035 0)
  (0.024493 0.0209338 0)
  (0.120556 -0.0345925 0)
  (0.0795911 -0.0434331 0)
  (0.0735926 -0.0421398 0)
  (0.0753443 -0.0350292 0)
  (0.0766879 -0.0256603 0)
  (0.0776217 -0.017529 0)
  (0.0759361 -0.0139647 0)
  (0.0712194 -0.00976911 0)
  (0.0678929 -0.00748377 0)
  (0.0663849 -0.0061735 0)
  (0.0657212 -0.00533485 0)
  (0.0653738 -0.00475117 0)
  (0.065352 -0.00421971 0)
  (0.0661391 -0.00335346 0)
  (0.0689651 -0.000126034 0)
  (0.0666558 0.0174605 0)
  (0.0523813 0.0297817 0)
  (0.0566756 0.0379501 0)
  (-0.0929838 0.0762601 0)
  (0.514406 0.341145 0)
  (-0.206185 0.147106 0)
  (-0.0766877 0.112702 0)
  (-0.10393 0.0816799 0)
  (-0.116584 0.0510482 0)
  (-0.12222 0.0168718 0)
  (-0.116235 -0.0219305 0)
  (-0.100522 -0.060718 0)
  (-0.0793768 -0.0919319 0)
  (-0.0561062 -0.111556 0)
  (-0.0334783 -0.118634 0)
  (-0.0126948 -0.114768 0)
  (0.00606629 -0.101147 0)
  (0.0215083 -0.0810818 0)
  (0.0350502 -0.056553 0)
  (0.0499465 -0.0290188 0)
  (0.0723797 0.00163891 0)
  (0.104855 0.0149962 0)
  (0.110447 -0.0275611 0)
  (0.0949073 -0.0378086 0)
  (0.0852775 -0.0357295 0)
  (0.0802214 -0.03034 0)
  (0.0765885 -0.0230586 0)
  (0.0744478 -0.0141422 0)
  (0.0759018 -0.00823202 0)
  (0.08041 -0.00620068 0)
  (0.0840334 -0.00504761 0)
  (0.0862355 -0.004184 0)
  (0.0873362 -0.00317184 0)
  (0.0867303 -0.00172666 0)
  (0.0834826 0.000346777 0)
  (0.0763477 0.00335448 0)
  (0.0623132 0.00787885 0)
  (0.0507529 0.0287224 0)
  (0.0384725 0.0458308 0)
  (0.0602666 0.0588207 0)
  (-0.137375 0.0989786 0)
  (0.638656 0.396269 0)
  (-0.24658 0.176305 0)
  (-0.0368081 0.127725 0)
  (-0.0579844 0.0917638 0)
  (-0.0620494 0.056863 0)
  (-0.0590933 0.0157974 0)
  (-0.041231 -0.0334632 0)
  (-0.0215737 -0.0794991 0)
  (-0.00270735 -0.113311 0)
  (0.0136083 -0.132147 0)
  (0.0261791 -0.136431 0)
  (0.0359831 -0.129647 0)
  (0.0435367 -0.114177 0)
  (0.0497637 -0.0927852 0)
  (0.055888 -0.0681654 0)
  (0.063815 -0.0435233 0)
  (0.0762474 -0.0249348 0)
  (0.0870134 -0.0242419 0)
  (0.0878746 -0.0328886 0)
  (0.0806465 -0.033347 0)
  (0.0717023 -0.029489 0)
  (0.064559 -0.0245643 0)
  (0.0592683 -0.0189658 0)
  (0.0561513 -0.0127448 0)
  (0.0557947 -0.00675485 0)
  (0.0578425 -0.00389022 0)
  (0.0601719 -0.0027914 0)
  (0.06236 -0.00187931 0)
  (0.0643163 -0.000120904 0)
  (0.0656176 0.0029538 0)
  (0.0651239 0.00744413 0)
  (0.0622834 0.0135407 0)
  (0.0563481 0.0219475 0)
  (0.0493254 0.0378186 0)
  (0.0382173 0.0570551 0)
  (0.0677666 0.0783948 0)
  (-0.0369204 0.110953 0)
  (0.0476128 0.0259563 0)
  (-0.0688089 -0.0374651 0)
  (-0.285582 -0.0609979 0)
  (0.728233 0.441914 0)
  (-0.285825 0.195412 0)
  (-0.00677812 0.121938 0)
  (-0.00937997 0.0895684 0)
  (-0.000190516 0.0528574 0)
  (0.022168 0.00227911 0)
  (0.051506 -0.0536128 0)
  (0.0711426 -0.0974036 0)
  (0.083172 -0.126294 0)
  (0.0884067 -0.14049 0)
  (0.0883513 -0.141579 0)
  (0.0847544 -0.132207 0)
  (0.0791689 -0.115217 0)
  (0.0732208 -0.0935694 0)
  (0.0683414 -0.0700125 0)
  (0.0657838 -0.0476228 0)
  (0.0662383 -0.0305086 0)
  (0.0664663 -0.0236902 0)
  (0.0625104 -0.0236281 0)
  (0.0546068 -0.0234027 0)
  (0.0458106 -0.0211652 0)
  (0.0385193 -0.0179728 0)
  (0.0332684 -0.0143672 0)
  (0.0303402 -0.0105264 0)
  (0.0298607 -0.00724216 0)
  (0.0313915 -0.00599497 0)
  (0.0338656 -0.00579398 0)
  (0.0368638 -0.00531593 0)
  (0.0401929 -0.00351906 0)
  (0.04374 0.000434855 0)
  (0.0466119 0.00664299 0)
  (0.0481136 0.0148346 0)
  (0.048471 0.0253126 0)
  (0.0492138 0.039986 0)
  (0.0474236 0.0586429 0)
  (0.0759138 0.083486 0)
  (0.048114 0.103192 0)
  (0.0974766 0.0687709 0)
  (0.122058 0.0449063 0)
  (-0.137891 -0.00959771 0)
  (0.78554 0.483633 0)
  (-0.303704 0.179659 0)
  (0.0245318 0.065399 0)
  (0.0585657 0.0543278 0)
  (0.0858331 0.0266216 0)
  (0.130622 -0.0284586 0)
  (0.15901 -0.0765442 0)
  (0.172329 -0.110249 0)
  (0.172733 -0.129701 0)
  (0.163032 -0.136388 0)
  (0.146482 -0.132277 0)
  (0.126207 -0.119872 0)
  (0.10491 -0.101981 0)
  (0.0848422 -0.0812655 0)
  (0.0675529 -0.0598849 0)
  (0.0540076 -0.0403236 0)
  (0.0443813 -0.0255287 0)
  (0.036962 -0.0178523 0)
  (0.0294157 -0.015585 0)
  (0.0212198 -0.0148857 0)
  (0.0135042 -0.0137158 0)
  (0.00735246 -0.0121703 0)
  (0.00310453 -0.0105366 0)
  (0.000917667 -0.00896782 0)
  (0.000778432 -0.00796843 0)
  (0.00222519 -0.0081199 0)
  (0.00456882 -0.0087665 0)
  (0.00754652 -0.00896917 0)
  (0.0111996 -0.00782438 0)
  (0.0156857 -0.00429493 0)
  (0.0221622 0.00255718 0)
  (0.0281591 0.0114702 0)
  (0.034139 0.021935 0)
  (0.0419935 0.0347555 0)
  (0.0500695 0.0497175 0)
  (0.0762215 0.0697974 0)
  (0.0892894 0.0777971 0)
  (0.126047 0.0512594 0)
  (0.168278 0.0420997 0)
  (-0.0323962 0.0952838 0)
  (0.893613 0.482763 0)
  (-0.0552122 0.157852 0)
  (0.120263 -0.024085 0)
  (0.210371 -0.0611979 0)
  (0.257242 -0.0755279 0)
  (0.281491 -0.0922163 0)
  (0.289277 -0.1073 0)
  (0.28034 -0.116531 0)
  (0.257019 -0.118862 0)
  (0.223659 -0.11458 0)
  (0.185021 -0.10459 0)
  (0.145203 -0.0901923 0)
  (0.107467 -0.0732788 0)
  (0.074101 -0.055639 0)
  (0.0462123 -0.0384121 0)
  (0.0246698 -0.0234511 0)
  (0.00944934 -0.0130694 0)
  (-0.00103652 -0.00814101 0)
  (-0.00885639 -0.00712727 0)
  (-0.0155118 -0.00734661 0)
  (-0.0211307 -0.00752782 0)
  (-0.0254747 -0.00758533 0)
  (-0.0284947 -0.00765994 0)
  (-0.0301919 -0.00789524 0)
  (-0.0306932 -0.00852652 0)
  (-0.0303812 -0.00966815 0)
  (-0.02967 -0.0109842 0)
  (-0.028678 -0.0119955 0)
  (-0.0272323 -0.0121997 0)
  (-0.0248967 -0.0109982 0)
  (-0.0206022 -0.00762922 0)
  (-0.010945 -0.00143693 0)
  (-0.00183709 0.00642383 0)
  (0.00989626 0.0145678 0)
  (0.0222871 0.0215561 0)
  (0.0448565 0.029934 0)
  (0.0651747 0.0236621 0)
  (0.0845655 -0.00258576 0)
  (0.145105 0.0510142 0)
  (-0.472615 0.217421 0)
  (1.04604 0.426925 0)
  (0.495504 0.278699 0)
  (0.514851 0.172415 0)
  (0.549939 0.0931386 0)
  (0.529225 0.0383714 0)
  (0.480759 -0.00447824 0)
  (0.424804 -0.0353082 0)
  (0.363793 -0.0536306 0)
  (0.298647 -0.0609766 0)
  (0.23281 -0.0599983 0)
  (0.17039 -0.0534185 0)
  (0.114261 -0.0432362 0)
  (0.0666156 -0.0316575 0)
  (0.0278468 -0.0203294 0)
  (-0.00309928 -0.0100377 0)
  (-0.0234627 -0.00347034 0)
  (-0.0350332 -0.000737228 0)
  (-0.0420049 -0.000313951 0)
  (-0.0468761 -0.00109843 0)
  (-0.0510906 -0.00219654 0)
  (-0.054844 -0.00325385 0)
  (-0.0580653 -0.00427334 0)
  (-0.0607681 -0.00533166 0)
  (-0.0630303 -0.00647418 0)
  (-0.0650624 -0.00774357 0)
  (-0.0672144 -0.00907954 0)
  (-0.0698542 -0.0102195 0)
  (-0.073284 -0.010779 0)
  (-0.0778138 -0.010273 0)
  (-0.0838818 -0.00807376 0)
  (-0.0920896 -0.00342752 0)
  (-0.102315 0.00422108 0)
  (-0.112981 0.0145669 0)
  (-0.128675 0.0277507 0)
  (-0.153333 0.0436125 0)
  (-0.189102 0.0606473 0)
  (-0.240517 0.0744676 0)
  (-0.302071 0.0828915 0)
  (-0.379696 0.0866342 0)
  (-0.653974 0.0809667 0)
  (-0.177107 -0.0216419 0)
  (0.0993596 -0.0383253 0)
  (0.176504 -0.0568878 0)
  (0.163137 -0.0487181 0)
  (0.143259 -0.0350986 0)
  (0.118569 -0.0227839 0)
  (0.0861423 -0.0123089 0)
  (0.0499848 -0.00416949 0)
  (0.0148969 0.00142265 0)
  (-0.017819 0.00509842 0)
  (-0.0409437 0.00640261 0)
  (-0.0577135 0.00652851 0)
  (-0.0681101 0.00551931 0)
  (-0.0734701 0.00342612 0)
  (-0.0764685 0.00103007 0)
  (-0.0785145 -0.00140372 0)
  (-0.0804405 -0.00386427 0)
  (-0.0825565 -0.00618391 0)
  (-0.0849833 -0.00819642 0)
  (-0.0876865 -0.00972727 0)
  (-0.0905209 -0.010793 0)
  (-0.0934775 -0.011499 0)
  (-0.0967298 -0.0118839 0)
  (-0.100466 -0.0119034 0)
  (-0.104803 -0.0113659 0)
  (-0.109718 -0.00993824 0)
  (-0.11501 -0.0071785 0)
  (-0.120286 -0.00257945 0)
  (-0.124938 0.00419085 0)
  (-0.128552 0.0134646 0)
  (-0.131451 0.0261634 0)
  (-0.133903 0.0428147 0)
  (-0.136669 0.0628587 0)
  (-0.139882 0.0832064 0)
  (-0.139712 0.0955864 0)
  (-0.117771 0.0855215 0)
  (-0.0438676 0.0285896 0)
  (-0.208805 -0.186281 0)
  (0.0392114 0.196821 0)
  (0.0127902 0.0623745 0)
  (-0.0324956 0.0108516 0)
  (-0.0569736 0.0103244 0)
  (-0.0758874 0.01664 0)
  (-0.0897419 0.0214174 0)
  (-0.0989196 0.0252939 0)
  (-0.105636 0.0284126 0)
  (-0.110362 0.0302106 0)
  (-0.113363 0.0304712 0)
  (-0.114453 0.0297695 0)
  (-0.114197 0.0293091 0)
  (-0.112835 0.0292107 0)
  (-0.111015 0.0295526 0)
  (-0.109325 0.030604 0)
  (-0.107982 0.0322809 0)
  (-0.107096 0.0342119 0)
  (-0.106682 0.035937 0)
  (-0.106707 0.0370007 0)
  (-0.107095 0.0370068 0)
  (-0.107855 0.0358754 0)
  (-0.108972 0.0342865 0)
  (-0.110448 0.0323994 0)
  (-0.112261 0.0303087 0)
  (-0.114344 0.0281265 0)
  (-0.116558 0.0259708 0)
  (-0.118654 0.0239278 0)
  (-0.120151 0.0223291 0)
  (-0.120282 0.0223294 0)
  (-0.11791 0.0250425 0)
  (-0.11159 0.0314747 0)
  (-0.100119 0.0425485 0)
  (-0.0835792 0.0581412 0)
  (-0.0634353 0.0743663 0)
  (-0.0424047 0.0817163 0)
  (0.0385938 0.0337608 0)
  (0.150245 -0.0579225 0)
  (-0.0517053 -0.0627088 0)
  (-0.0903878 -0.345895 0)
  (-0.446125 -0.138586 0)
  (-0.33329 0.0434871 0)
  (-0.293016 -0.0439058 0)
  (-0.252598 -0.0498908 0)
  (-0.241718 -0.0424262 0)
  (-0.233894 -0.0354212 0)
  (-0.224647 -0.0310032 0)
  (-0.212992 -0.0287581 0)
  (-0.199261 -0.0287889 0)
  (-0.184483 -0.0315999 0)
  (-0.170081 -0.0371308 0)
  (-0.157265 -0.0445387 0)
  (-0.146611 -0.0525656 0)
  (-0.138181 -0.0607616 0)
  (-0.131811 -0.0689638 0)
  (-0.127113 -0.0769035 0)
  (-0.123641 -0.0842775 0)
  (-0.121061 -0.0907222 0)
  (-0.119164 -0.0958179 0)
  (-0.117854 -0.0992126 0)
  (-0.117122 -0.100695 0)
  (-0.116976 -0.100193 0)
  (-0.117365 -0.0983948 0)
  (-0.118127 -0.0954872 0)
  (-0.119095 -0.0915691 0)
  (-0.120048 -0.0866509 0)
  (-0.120682 -0.0806345 0)
  (-0.120602 -0.0732872 0)
  (-0.119276 -0.0645677 0)
  (-0.115728 -0.0549148 0)
  (-0.108149 -0.0442431 0)
  (-0.0939821 -0.0322067 0)
  (-0.0710744 -0.0181022 0)
  (-0.0398329 -0.00142303 0)
  (0.004554 0.0173777 0)
  (0.0457846 0.009615 0)
  (0.106939 -0.0445325 0)
  (0.119146 -0.0857739 0)
  (-0.516679 0.0126591 0)
)
;

boundaryField
{
  floor
  {
    type noSlip;
  }
  ceiling
  {
    type noSlip;
  }
  sWall
  {
    type noSlip;
  }
  nWall
  {
    type noSlip;
  }
  sideWalls
  {
    type empty;
  }
  glass1
  {
    type noSlip;
  }
  glass2
  {
    type noSlip;
  }
  sun
  {
    type noSlip;
  }
  heatsource1
  {
    type noSlip;
  }
  heatsource2
  {
    type noSlip;
  }
  Table_master
  {
    type noSlip;
  }
  Table_slave
  {
    type noSlip;
  }
  inlet
  {
    type fixedValue;
    value uniform (0.277164 -0.114805 0);
  }
  outlet
  {
    type zeroGradient;
  }
} 	// ************************************************************************* //

