/*--------------------------------*- C++ -*----------------------------------*\
  =========                 |
  \\      /  F ield         | OpenFOAM: The Open Source CFD Toolbox
   \\    /   O peration     | Website:  https://openfoam.org
    \\  /    A nd           | Version:  6
     \\/     M anipulation  |
\*---------------------------------------------------------------------------*/
FoamFile
{
    version     2.0;
    format      ascii;
    class       volScalarField;
    location    "800";
    object      alphat;
}
// * * * * * * * * * * * * * * * * * * * * * * * * * * * * * * * * * * * * * //

dimensions      [1 -1 -1 0 0 0 0];

internalField   nonuniform List<scalar> 
459
(
0.00113819
0.00123205
0.00124566
0.0013034
0.00135625
0.0014048
0.001451
0.00149728
0.00153847
0.00156513
0.00157088
0.00155001
0.00150069
0.00142938
0.00134996
0.000494508
0.000595673
0.000641606
0.000621071
0.000594308
0.000566232
0.00053626
0.000507587
0.000481468
0.000457937
0.000436728
0.000417664
0.000400405
0.000384564
0.000369673
0.000355011
0.000339499
0.000334518
0.0003129
0.00159945
0.00352293
0.00327289
0.00381638
0.00430674
0.00481283
0.00529697
0.00569815
0.00602905
0.00631988
0.00652279
0.00657131
0.00636757
0.00571205
0.00407764
0.00135696
0.000881775
0.000594398
0.000982491
0.00123752
0.00141691
0.00150758
0.00151247
0.00131724
0.00118807
0.00108699
0.0010039
0.000934099
0.00087242
0.000816359
0.000763718
0.000713733
0.000671307
0.000625656
0.000770885
0.0004381
0.00199048
0.00482805
0.00388014
0.0051067
0.00563255
0.00602108
0.00632578
0.00657558
0.00681956
0.00708801
0.0073478
0.00754773
0.00762346
0.00748854
0.00700757
0.00569854
0.00130752
0.00111235
0.0014198
0.00163666
0.00182338
0.00195962
0.00192949
0.00073797
0.000668124
0.000611015
0.000564003
0.000524877
0.000491933
0.000463954
0.000440154
0.000420152
0.000450601
0.000506166
0.000873553
0.000522141
0.00237492
0.00642623
0.0037825
0.00538319
0.00593254
0.00611763
0.00620317
0.00630343
0.00647578
0.00673548
0.00704398
0.00735388
0.00760609
0.00771424
0.00762851
0.00714457
0.00556353
0.00147477
0.00180714
0.00216185
0.00243752
0.00265007
0.00280681
0.00268797
0.000824317
0.000775624
0.000745504
0.000724274
0.000704388
0.000680613
0.000656634
0.000629602
0.00059568
0.000560718
0.000553822
0.00105075
0.000584965
0.00277031
0.00855259
0.00425832
0.00502449
0.00585998
0.00597898
0.00591421
0.00590509
0.00606622
0.00634959
0.00669764
0.00707225
0.00740714
0.00757375
0.0075162
0.0071748
0.00644657
0.00516132
0.00452463
0.00417035
0.00397558
0.00390346
0.00389919
0.00385661
0.00347395
0.00333996
0.00328076
0.00322343
0.0031323
0.00297928
0.00268831
0.00230449
0.00186299
0.00140706
0.00102693
0.00102386
0.000760453
0.000743951
0.000885897
0.000987944
0.00318889
0.0108792
0.00635604
0.00479794
0.00537435
0.00573949
0.00586075
0.00572094
0.00592623
0.00621386
0.00656898
0.00696435
0.00731623
0.00750891
0.00743586
0.00705113
0.00641632
0.00570355
0.00518829
0.00484763
0.00462199
0.00448034
0.00438372
0.00430803
0.00422378
0.00417362
0.00412581
0.0040572
0.00395789
0.00382285
0.0035965
0.00324531
0.00276911
0.00219931
0.00165374
0.00116993
0.000969721
0.000883308
0.00130432
0.00103209
0.00358462
0.0126177
0.00968798
0.00670109
0.00584342
0.00577787
0.00597807
0.00602788
0.00612277
0.00632183
0.0066481
0.00705032
0.00741861
0.0076139
0.00750686
0.00704489
0.00633222
0.00564924
0.00521713
0.00494372
0.00468688
0.00444624
0.00426872
0.0041695
0.0041252
0.00410372
0.00407357
0.0040237
0.00395553
0.0038773
0.00379187
0.00356776
0.00316967
0.00265312
0.00214416
0.00164064
0.0013526
0.0013018
0.00139126
0.00115838
0.00366544
0.0115921
0.0101494
0.00915185
0.00819651
0.00752642
0.00704427
0.00661469
0.00644394
0.00656926
0.00691251
0.00734116
0.00770665
0.00785664
0.00765491
0.00705567
0.00621125
0.0055086
0.00506451
0.00463368
0.00425521
0.00399536
0.00384666
0.00377272
0.00373809
0.00371505
0.00368891
0.00366029
0.00363926
0.00364108
0.00368186
0.00372895
0.00344978
0.003069
0.00273241
0.00258335
0.00277928
0.00345035
0.00448344
0.00183152
0.0035723
0.00426634
0.00482446
0.00506864
0.00524202
0.00530756
0.0054057
0.0056824
0.00617255
0.00678724
0.00739711
0.00788767
0.00816903
0.00814599
0.00771603
0.00689012
0.00595662
0.00516008
0.00448241
0.00396991
0.00365153
0.00346897
0.00336069
0.00328867
0.00323107
0.00317491
0.00311393
0.00304653
0.00297238
0.00289022
0.00279813
0.00269548
0.00260755
0.00255288
0.00255946
0.00261558
0.00263927
0.00255107
0.0023827
0.00169064
0.00218692
0.00445805
0.00560037
0.00636447
0.00713211
0.00783515
0.00837134
0.0086937
0.00880479
0.00872786
0.00848782
0.00805656
0.00737185
0.00640719
0.00540113
0.00448605
0.00382446
0.00344429
0.0032279
0.00308669
0.00297946
0.00288917
0.00280843
0.00273373
0.0026639
0.00259997
0.0025453
0.00250591
0.0024903
0.0025057
0.00253535
0.00257829
0.00262521
0.00264188
0.00257308
0.00239472
0.00212162
0.00136809
0.00265836
0.0059804
0.00772229
0.00810089
0.00854617
0.00895354
0.00898994
0.00863859
0.00809351
0.0073594
0.00662442
0.00598504
0.00539509
0.00473368
0.0040576
0.00350338
0.00311263
0.00285998
0.00268386
0.00254845
0.00244078
0.00235849
0.0023026
0.00227425
0.00227317
0.00229668
0.00233917
0.00239134
0.00245846
0.00254501
0.00264685
0.00275675
0.00285842
0.00293544
0.00293669
0.00296432
0.00268914
0.00138442
0.00229217
0.00242785
0.00252705
0.0026583
0.00252685
0.00237921
0.00221092
0.00201003
0.00181248
0.0016589
0.00150675
0.0013601
0.00122241
0.00109877
0.000991768
0.000905342
0.000843756
0.000806915
0.000789377
0.000781672
0.00078085
0.00078556
0.000795263
0.000809706
0.000828716
0.00085219
0.000880144
0.000912838
0.000950958
0.000995948
0.00104792
0.00110663
0.00117249
0.00124605
0.00132759
0.00143487
0.0014697
0.00143701
0.00134202
0.00124021
)
;

boundaryField
{
    floor
    {
        type            compressible::alphatWallFunction;
        Prt             0.85;
        value           nonuniform List<scalar> 
29
(
0.000190645
6.8369e-05
8.3693e-05
9.05452e-05
8.74924e-05
8.3494e-05
7.92746e-05
7.47412e-05
7.03743e-05
6.63692e-05
6.27374e-05
5.94436e-05
5.64656e-05
5.37544e-05
5.12529e-05
4.88891e-05
4.65497e-05
4.40611e-05
4.32584e-05
3.97586e-05
3.9758e-05
5.96542e-05
7.25904e-05
8.20896e-05
0.000190643
6.83681e-05
8.34788e-05
0.000157968
0.000207534
)
;
    }
    ceiling
    {
        type            compressible::alphatWallFunction;
        Prt             0.85;
        value           nonuniform List<scalar> 
43
(
0.000314709
0.000332068
0.000344698
0.000361466
0.000344862
0.000326069
0.000304483
0.000278471
0.000252614
0.000232302
0.000211969
0.000192154
0.000173328
0.000156215
0.000141225
0.000128979
0.000120169
0.000114864
0.000112328
0.000111212
0.000111094
0.000111776
0.000113182
0.000115269
0.00011801
0.000121384
0.000125388
0.000130052
0.000135466
0.000141822
0.000149124
0.000157321
0.000166458
0.000176595
0.000187751
0.000202312
0.000207014
0.000202602
0.000189719
0.000175796
0.000475411
0.000559674
0.000361157
)
;
    }
    sWall
    {
        type            compressible::alphatWallFunction;
        Prt             0.85;
        value           uniform 0.000313438;
    }
    nWall
    {
        type            compressible::alphatWallFunction;
        Prt             0.85;
        value           nonuniform List<scalar> 6(0.000140347 0.00014655 0.000164142 0.000192916 0.000195131 0.000175448);
    }
    sideWalls
    {
        type            empty;
    }
    glass1
    {
        type            compressible::alphatWallFunction;
        Prt             0.85;
        value           nonuniform List<scalar> 9(0.000157341 0.000219127 0.000270097 0.000319259 0.000369021 0.000420949 0.000469447 0.000479423 0.000468322);
    }
    glass2
    {
        type            compressible::alphatWallFunction;
        Prt             0.85;
        value           nonuniform List<scalar> 2(0.000253075 0.00023463);
    }
    sun
    {
        type            compressible::alphatWallFunction;
        Prt             0.85;
        value           nonuniform List<scalar> 
14
(
0.000161587
0.00017453
0.000176399
0.000184306
0.000191508
0.000198097
0.000204343
0.000210577
0.000216108
0.000219678
0.000220446
0.000217651
0.00021103
0.000201416
)
;
    }
    heatsource1
    {
        type            compressible::alphatWallFunction;
        Prt             0.85;
        value           nonuniform List<scalar> 3(0.000105752 0.000126237 0.000140721);
    }
    heatsource2
    {
        type            compressible::alphatWallFunction;
        Prt             0.85;
        value           nonuniform List<scalar> 4(0.000191755 0.000125627 0.000125625 0.000185014);
    }
    Table_master
    {
        type            compressible::alphatWallFunction;
        Prt             0.85;
        value           nonuniform List<scalar> 9(0.000104875 9.46173e-05 8.61328e-05 7.90747e-05 7.31446e-05 6.81085e-05 6.37978e-05 6.0105e-05 5.69818e-05);
    }
    Table_slave
    {
        type            compressible::alphatWallFunction;
        Prt             0.85;
        value           nonuniform List<scalar> 9(0.000117399 0.000110359 0.000105978 0.000102877 9.99617e-05 9.64634e-05 9.29201e-05 8.89063e-05 8.38395e-05);
    }
    inlet
    {
        type            fixedValue;
        value           uniform 1.94e-05;
    }
    outlet
    {
        type            zeroGradient;
    }
}


// ************************************************************************* //
