/*--------------------------------*- C++ -*----------------------------------*=========                 |
  \      /  F ield         | OpenFOAM: The Open Source CFD Toolbox
   \    /   O peration     | Website:  https://openfoam.org
    \  /    A nd           | Version:  6
     \/     M anipulation  |
\*---------------------------------------------------------------------------*/
FoamFile
{
    version     2.0;
    format      ascii;
    class       volScalarField;
    location    "800";
    object      PMV;
}
// * * * * * * * * * * * * * * * * * * * * * * * * * * * * * * * * * * * * * //

dimensions      [0 0 0 0 0 0 0];

internalField   nonuniform List<scalar> 
459
(
1.746059848144744
1.541278687641951
1.5219080204890756
1.5005573600792326
1.4845313162692828
1.4739565851601428
1.4670804095005754
1.465910496954931
1.4694492568619777
1.4778215359496938
1.4923945757083916
1.514250790514497
1.546623482133163
1.5851844696294175
1.599217211047702
1.649543735063733
1.641903984156204
1.63903894450303
1.6380839152847473
1.6376063976844564
1.6371288780927347
1.635633023565405
1.6316737903647782
1.6300230900587556
1.6291185140404667
1.628959441828096
1.6286166312731258
1.6287024411855557
1.630069509728523
1.632815870156869
1.63330864990619
1.6328311124810475
1.6328311124810475
1.6409489789547804
1.7209880703535343
1.5579066365707162
1.5561770886951747
1.5365999363579785
1.5242304801351365
1.516147217994959
1.5116509570364804
1.5101704278004424
1.5126900110438373
1.51680283667349
1.5228898926132146
1.5342199970593782
1.5517631337148878
1.5740384031114525
1.5945088625627322
1.6165936798033786
1.6070412151382414
1.5887902908164617
1.6409489789547804
1.6385614308915903
1.6366513565115794
1.62645022421669
1.619626181561397
1.6155365425262882
1.6135606227432044
1.6117768648287971
1.6095634852682454
1.6071407252133698
1.6047540618025626
1.60292836868249
1.6012555527338543
1.6014317175456334
1.606154894662859
1.6142056344764253
1.6156384673744209
1.595460612736489
1.7753389260194963
1.5565284716581198
1.587166483252749
1.5763323023424967
1.5730795972289873
1.5713481761473762
1.5713369816044922
1.5726269479006079
1.5735998234293345
1.5708650373545352
1.5642828086342806
1.559016095011702
1.55961152482973
1.5696341001565453
1.592764985829802
1.620892041207561
1.6194592713059297
1.547242826033568
1.5998929475357675
1.6146812419342804
1.6168974373915102
1.6173405098866782
1.6171093311609135
1.6154599815943338
1.6166220394792452
1.6161743363053978
1.6143020790062834
1.6111266790503975
1.6081150304270675
1.6047183290171478
1.6001777173583411
1.5930866532365335
1.5918481438156937
1.6070573746937422
1.5919260075211445
1.5374422752678518
1.8585639546753157
1.5585444509321738
1.6098717861348417
1.6135533358224012
1.625888355681695
1.6374717749079093
1.6470204465478788
1.6545679765294479
1.6531009888993091
1.6363897650717207
1.6078762829326552
1.578146638244717
1.5584937965469567
1.5561233801709602
1.5735973350974195
1.6110435852067668
1.6242351035978237
1.6099129030449877
1.5866063739524778
1.6072166655917868
1.6246708392737441
1.6329788595778736
1.6366763124587065
1.636615545512959
1.6295058124170922
1.618944605759791
1.6098451985297564
1.6022597658523954
1.5968030347293791
1.5937373709704534
1.594856114855895
1.602331751138995
1.619855432928833
1.6199536684971652
1.6122526146973697
1.5680702092672316
1.4922502172486836
1.952820853063135
1.5761998844840954
1.6302232340445584
1.6460031857797692
1.676990251884989
1.7102443951057513
1.7408123914781526
1.761193071818417
1.7421047270241277
1.6928564669617927
1.6341605572151447
1.5823453494376156
1.5474428011867882
1.5378973200713053
1.550334749335466
1.5789474575133673
1.6071021056640096
1.6148606796999738
1.6137897959789982
1.6307911986647603
1.6515570590941402
1.656228088643101
1.6586152597383834
1.6595701136283054
1.6605249591803617
1.66065605939949
1.65116984055518
1.6424870709317176
1.6349817581759005
1.6287521226831425
1.6250246456147983
1.6247710852615873
1.6264057077960221
1.6187292277995344
1.6012008819285035
1.5455133057813037
1.5425677208596005
1.6586152597383834
1.6352273103807453
1.4767007896715636
2.0429052127517964
1.6155235269745818
1.6727572171624978
1.680524202109717
1.7187050362200178
1.7693183590263302
1.7926827077052008
1.819376810380698
1.770806649318244
1.6979718093189033
1.6271149199098476
1.5678075272697123
1.530260467782506
1.5195965435318866
1.5333101412287424
1.5649726481945854
1.6026253708516338
1.6328441819798003
1.6485887946134918
1.6571829633059134
1.6633894456446359
1.667686033387014
1.6700729524879474
1.6710277052328288
1.6719824494409754
1.6719824494409754
1.6715050784050258
1.6705503299264395
1.6691181912230153
1.6662538564745641
1.6619572118389099
1.6524122526595877
1.6408012743297098
1.620909278521622
1.594957120567565
1.5389426598881348
1.5412343937927127
1.5524495553327764
1.547455806339175
1.5541999241598992
2.1261756922621093
1.7071355757278623
1.8134467856987626
1.762633799758331
1.7550741490893373
1.7765572817722644
1.793059740419444
1.770959672583173
1.7245459599117827
1.658792512889963
1.588858607386378
1.5321545882849774
1.5013342325261394
1.5005892842202344
1.5261663997540889
1.5707236024052815
1.6229946797744237
1.6481113213309968
1.6610023788245234
1.6700729524879474
1.6758013405712435
1.6791427572015247
1.681052090441573
1.6820067439998294
1.6824840675061083
1.6820067439998294
1.681529418310943
1.6800974281698227
1.6777107344800597
1.6743692725032724
1.668640807400749
1.6624346252049882
1.65575064820552
1.6405471241779108
1.6067990225436077
1.5551408379836704
1.5375642139276167
1.526538352170377
1.4992617296678716
1.5840686675124087
2.2563813554177776
2.027542508505805
1.9853921494793902
1.8755656926984101
1.8266965187071387
1.800985333769258
1.7749586060776956
1.730944584848555
1.6634806615350877
1.5839386219838616
1.5141089487466113
1.471070483940689
1.4628210866318434
1.4880337595583621
1.5392809846145215
1.606611822228054
1.6433364768828804
1.6633894456446359
1.6762786922864363
1.6834387079623316
1.6872571820573237
1.689643656739407
1.6910755149646364
1.6915527965961843
1.6920300760023739
1.6915527965961843
1.6910755149646364
1.6891663662279304
1.6867798804941954
1.6834387079623316
1.6786654184614387
1.6710277052328288
1.6648216605418098
1.6581378296718812
1.6514535914484167
1.6413393267621028
1.6195987531569374
1.6083531559577118
1.5488630339290204
1.468913391479527
2.447579119584533
2.305630324773834
2.132345934719885
1.9798190836309484
1.8701910890839106
1.7909399707212068
1.7216973724812943
1.6223034554022866
1.512101017179554
1.426179214151455
1.384927702141144
1.3911695764342216
1.4365533114561406
1.511195347232758
1.601309376950721
1.6356963073889386
1.6652990612959901
1.681529418310943
1.6901209450341017
1.694893705586234
1.6972800019798175
1.6991889985843176
1.700059003143891
1.694161539245126
1.6885555929665177
1.6825052754054861
1.6758403344166615
1.6684480687821386
1.6605567038682636
1.6515912722887227
1.6411172811457795
1.6304269334030796
1.6208872642134082
1.6086462616300148
1.5946094383532305
1.5817484827497117
1.5718713609428663
1.5664969911641398
1.555403390094035
1.523738317992455
-2.7486562725397237
-0.7501461457676856
0.05996715285984237
0.4743812282719938
0.674125611070513
0.8204713385035136
0.9661422284557656
1.1117221394641197
1.2580408483069652
1.3998010782655894
1.518648888317597
1.585067737608176
1.6385614308915903
1.668640807400749
1.6867798804941954
1.6933219208589434
1.690108818237315
1.6866003115927553
1.6820412579297752
1.6769371228543903
1.6716132182965204
1.666019932699136
1.659645232963767
1.652972377610134
1.6461005694310729
1.6392466506138121
1.6332077501316153
1.6278830577505117
1.6241509856067926
1.6224042047127418
1.6217738929666599
1.6218129483438497
1.6224809742316182
1.624986816172241
1.6350365165518697
1.6692840061308614
1.7368568587436266
1.5769692870228362
-2.115634831737235
-0.5401049757928956
0.30925971555134757
0.7016584291372789
0.9214261261393341
1.082303009951928
1.2177752674094973
1.3441058519456492
1.466542964563437
1.5535354538455415
1.6066006932201204
1.6222988206101696
1.635202004146641
1.6448897640313354
1.6514579741287863
1.6560826770346588
1.65898868134089
1.6600734860216824
1.659043724870292
1.6577696752219355
1.6550670374990117
1.6525120675586868
1.6497028794827726
1.6467208067477332
1.6437021709496282
1.6408570750976823
1.6389718080504119
1.6375369584836683
1.6382654708060522
1.6420311916972605
1.6501585552451652
1.662071919889026
1.6753247381121525
1.6861736219314665
1.697728040877041
1.7352531972016307
1.6684970194987125
1.6165968528386219
-0.8860446001154754
-1.020923131905718
-0.9066281986776948
0.26886411525431225
0.7464698096120442
1.0006700050707293
1.1812171892310186
1.31831564404531
1.416215402393254
1.481644379709969
1.5298347761182063
1.5645372749368025
1.5883653120487469
1.603461672429611
1.6112707526512986
1.6128418312072013
1.6116661197366913
1.6109999087333156
1.6107141726705116
1.6110984449403685
1.611460625149617
1.6121938171422663
1.6132302402687615
1.6140159518112134
1.6155324184450905
1.6167979194917699
1.6189452052951252
1.6212396395919222
1.6251361699402873
1.630295914179039
1.6384138640454162
1.6515066315373281
1.6735049818667551
1.7129607490526992
1.7473787992865975
1.754056624475305
1.7218846544815067
1.6772257131114565
1.6324076076687983
1.6360993527777936
)
;

boundaryField
{
    ".*"
    {
        type            zeroGradient;
    }
}


// ************************************************************************* //
