/*--------------------------------*- C++ -*----------------------------------*=========                 |
  \      /  F ield         | OpenFOAM: The Open Source CFD Toolbox
   \    /   O peration     | Website:  https://openfoam.org
    \  /    A nd           | Version:  6
     \/     M anipulation  |
\*---------------------------------------------------------------------------*/
FoamFile
{
    version     2.0;
    format      ascii;
    class       volScalarField;
    location    "800";
    object      PPD;
}
// * * * * * * * * * * * * * * * * * * * * * * * * * * * * * * * * * * * * * //

dimensions      [0 0 0 0 0 0 0];

internalField   nonuniform List<scalar> 
459
(
64.19145834297858
53.138340170682454
52.08372586544743
50.92294956237834
50.05331578467896
49.480476993590486
49.1084726534456
49.04522026830442
49.236583114977975
49.68974352786036
50.47979907746202
51.667181629234065
53.42948412266369
55.53023604407156
56.29413469336037
59.02572193028328
58.61217086183989
58.45695936806581
58.40520716378042
58.379328290817256
58.35344758519421
58.27236390821257
58.05767265584838
57.96813002239886
57.91905318037419
57.91042231038525
57.89182167014127
57.896477724501246
57.970648324174206
58.11961395223067
58.14633727400141
58.12044056549019
58.12044056549019
58.56044130443664
62.86239705617906
54.044214054023364
53.949978994985926
52.88352044108885
52.210109792129934
51.77032249920784
51.5258106576378
51.44531801438754
51.58230753455388
51.805983172338145
52.1371551471574
52.75392015191391
53.709490070894965
54.92313089205078
56.03789602679555
57.238998302974295
56.7197446596021
55.72658138208723
58.56044130443664
58.43108419316768
58.327565057825666
57.774256102709266
57.40373883464672
57.181557380424
57.074177208032
56.977222570697414
56.85689415043261
56.72515611847345
56.59535476029993
56.49604575901925
56.40504045042483
56.414624780747914
56.6715436829454
57.10923224268783
57.1870958624739
56.08969859317988
65.72885387249883
53.96912413748256
55.6381654217536
55.04809285144194
54.870897098924765
54.77657005619618
54.775960171883035
54.84623729484283
54.8992381064027
54.750248296104566
54.39162519251801
54.10466376171211
54.13710630889705
54.68318490633449
55.94297131076533
57.47249104373806
57.39467279874929
53.46322406873656
56.33090315197694
57.13507911478555
57.25550223751403
57.2795745986933
57.26701467265802
57.17739710843692
57.24053917887082
57.21621345725788
57.11447361377869
56.94187829060909
56.77813743248942
56.593411202980164
56.34639764557267
55.96048141441393
55.89306085590278
56.7206234356858
55.89729965045938
52.9293934555949
69.9916825217658
54.078965834805295
56.873656083272024
57.07378116681452
57.74375989453017
58.372032151833764
58.889186891140916
59.297415917492096
59.218109766964766
58.31338560921788
56.7651550916259
55.14692461195492
54.07620589028803
53.947052684278304
54.899102547258295
56.937361135106975
57.6540156505664
56.875891523775394
55.607665995908945
56.72928580304962
57.67767056327926
58.1284530185786
58.32891775725439
58.32562396859647
57.94006633314799
57.366716789326304
56.87221056639694
56.45967347824042
56.162759690155866
55.99590251082967
56.05679688375216
56.463589596482436
57.416190779577846
57.421526418454796
57.00308312789202
54.597979801494134
50.47196570564653
74.57513477437072
55.040879491155394
57.97898787831019
58.83412755400924
60.50691178148429
62.289729399277704
63.91419128682985
64.98819599489062
63.982522278409405
61.359339303708026
58.19253189846578
55.37561729918517
53.47411820557866
52.954175445918125
53.6316694852318
55.19054564973232
56.723055953524764
57.144830344139706
57.086632540791946
58.009798593252455
59.13462292038088
59.3871384496615
59.51611004811996
59.567682570721146
59.6192457525742
59.62632467443482
59.11368100661671
58.64375121744812
58.237056512828076
57.89917342501237
57.69687687710193
57.683112478757835
57.771839985220716
57.35501726945683
56.40206603423423
53.3690064520851
53.20855262256969
59.51611004811996
58.25036912977092
49.629048863448155
78.65144902728177
57.18085012590498
60.27898280993706
60.697041003766756
62.74085406200857
65.41412738508922
66.63113756494411
68.00625182493609
65.49199840182612
61.63348376760179
57.810330767132996
54.58366797696661
52.53833531329561
51.9579594354657
52.70437741595571
54.4292112804942
56.47956277396402
58.12114934197642
58.97405660863055
59.43873394158875
59.77387837923654
60.00566305417071
60.134344593372404
60.18579925612946
60.23724352894505
60.23724352894505
60.21152269674266
60.16007321803033
60.082879628090524
59.9284237913317
59.69657282017271
59.18086953120697
58.55243997515093
57.473427183339204
56.06229452450682
53.01110692838411
53.13592757941639
53.7468880210713
53.47482669491892
53.84225406969961
82.11028406716886
62.12369664023847
67.70227315748647
65.06381653980431
64.66657284634428
65.79245094543461
66.65067757993282
65.5000023561046
63.05164488084849
59.5256843192662
55.73030104873225
52.64145932043135
50.96514588718406
50.9246834750454
52.31547334776376
54.742542770918256
57.58666993722791
58.94822081659216
59.645023813393614
60.134344593372404
60.442914972607696
60.622735573350404
60.72542921245331
60.77675911449044
60.802419797919605
60.77675911449044
60.75109558236269
60.67408800295782
60.5456860823212
60.36580818135356
60.057143309322264
59.72234374427092
59.361337310216655
58.53867196705289
56.70657379308182
53.89351907968926
52.93603425714397
52.33571851379566
50.85258424390419
55.46947152865795
86.85367813152494
77.9797067102163
76.08630084278599
70.83956722172749
68.38023437411863
67.06066666430914
65.70899506500011
63.39147486007959
59.77880110313398
55.4623893031549
51.65946792256443
49.32428898647714
48.87824721270881
50.24322727343484
53.02953332363295
56.69639332370552
58.68975068879915
59.77387837923654
60.468611837450005
60.85373257501702
61.05886755252398
61.186980784033686
61.26381253088482
61.28941701573337
61.31501843369315
61.28941701573337
61.26381253088482
61.16136414065875
61.03323595636802
60.85373257501702
60.59705517830178
60.18579925612946
59.85116213465737
59.490320311365075
59.12902721795191
58.58158606369023
57.402249021718944
56.79108568943365
53.551490288241276
49.20759855064793
92.26098805050442
88.42491648872374
82.35382986399611
75.83062032695665
70.57246483320807
66.54077672740434
62.900141737809314
57.549137543335924
51.550281335557465
46.90524664610904
44.704094320557786
45.03557051384011
47.462346444939534
51.50103919672239
56.407968795604546
58.275794581505515
59.87691849020501
60.75109558236269
61.21259440413185
61.46856192638592
61.59642849953363
61.69866426591374
61.745240591868104
61.42931453596713
61.12857912999742
60.80355986090263
60.4450141921101
60.046751856811895
59.62095986261489
59.136473205787404
58.56955821754069
57.990038333049476
57.472231610120005
56.807023170168506
56.04337038347065
55.34310964829366
54.80507327926706
54.51226475536313
53.907824129560765
52.18332563555339
97.29406377976055
16.849476987324508
5.074452193407083
9.699345730747368
14.549709163532512
19.197208394524523
24.714014552235668
31.04894580354518
38.12588869995589
45.49492719952306
51.906403929472454
55.52387917130459
58.43108419316768
60.057143309322264
61.03323595636802
61.38429852837529
61.21194365705766
61.02359218176183
60.77861465859656
60.504052293338525
60.21734951121699
59.91580592384991
59.571739457906745
59.211156031674754
58.83939883139189
58.46821385433061
58.140865645327
57.85201589971341
57.6494489754792
57.55460825265754
57.52038118228812
57.52250202950065
57.55877681286767
57.69482335025144
58.24002527730887
60.09181833300934
63.704862278551474
55.082791721861554
81.69005393918827
11.104474837565306
6.987847352755637
15.353858488828195
22.92909944554893
29.70737714256363
36.11641559037477
42.552334390784694
49.07941370647855
53.806051213048946
56.69578809260121
57.54888587164587
58.24899717225516
58.773853535225555
59.129264242540536
59.3792805545577
59.536279939799485
59.59486659586832
59.53925293167179
59.470431910293726
59.32439090198723
59.18626682793874
59.03433137700945
58.872969767313606
58.7095530009127
58.555462787106514
58.45332153065483
58.37556491755731
58.4150460369403
58.61906073665594
59.058981443568626
59.702765005110294
60.4172558572123
61.00067514121221
61.62042754131851
63.61991757187646
60.04939105942889
57.239170704794326
21.57352530773987
27.00650903932899
22.355975963887673
6.50104125586131
16.732541306478808
26.14564821279248
34.33085223449767
41.20894115736453
46.37143112455827
49.896844691536636
52.51516025769616
54.40548987629903
55.70344206347825
56.525056389801094
56.94971035268771
57.03510985877393
56.971202585301434
56.93498677681406
56.9194532448056
56.94034342903146
56.96003195607313
56.99988710348114
57.05622077750477
57.098923612932545
57.18133328129649
57.250095228759655
57.366749356242636
57.49136839064834
57.70293079149582
57.982930724156574
58.42308758998288
59.13189572617345
60.31926105096468
62.43468477854201
64.26107073114066
64.61301928582223
62.91010639374188
60.51958428520272
58.0974726761154
58.29764334242896
)
;

boundaryField
{
    ".*"
    {
        type            zeroGradient;
    }
}


// ************************************************************************* //
