// -*- C++ -*-
// File generated by PyFoam - sorry for the ugliness

FoamFile
{
 version 2.0;
 format ascii;
 class volScalarField;
 location "800";
 object T;
}

dimensions [ 0 0 0 1 0 0 0 ];

internalField nonuniform List<scalar> 459
(
  302.902
  302.617
  302.606
  302.604
  302.601
  302.599
  302.595
  302.592
  302.587
  302.579
  302.569
  302.557
  302.547
  302.54
  302.537
  302.582
  302.566
  302.56
  302.558
  302.557
  302.556
  302.554
  302.553
  302.552
  302.551
  302.551
  302.55
  302.549
  302.549
  302.548
  302.548
  302.547
  302.547
  302.564
  303.099
  302.656
  302.632
  302.636
  302.64
  302.643
  302.644
  302.641
  302.635
  302.621
  302.599
  302.575
  302.552
  302.535
  302.523
  302.513
  302.493
  302.582
  302.564
  302.559
  302.555
  302.552
  302.549
  302.544
  302.539
  302.534
  302.529
  302.524
  302.519
  302.515
  302.511
  302.509
  302.508
  302.508
  302.511
  302.543
  303.304
  302.705
  302.662
  302.673
  302.687
  302.699
  302.708
  302.711
  302.704
  302.682
  302.645
  302.603
  302.565
  302.539
  302.526
  302.522
  302.519
  302.559
  302.558
  302.56
  302.562
  302.562
  302.561
  302.554
  302.547
  302.54
  302.534
  302.527
  302.521
  302.515
  302.509
  302.504
  302.501
  302.499
  302.5
  302.535
  303.506
  302.767
  302.692
  302.707
  302.732
  302.758
  302.78
  302.794
  302.788
  302.755
  302.698
  302.632
  302.575
  302.539
  302.523
  302.523
  302.529
  302.541
  302.549
  302.56
  302.569
  302.576
  302.579
  302.58
  302.58
  302.58
  302.58
  302.579
  302.578
  302.576
  302.573
  302.57
  302.565
  302.54
  302.518
  302.505
  302.534
  303.7
  302.848
  302.728
  302.734
  302.765
  302.803
  302.843
  302.874
  302.871
  302.824
  302.742
  302.653
  302.577
  302.533
  302.516
  302.519
  302.531
  302.546
  302.561
  302.576
  302.588
  302.596
  302.601
  302.603
  302.605
  302.606
  302.606
  302.605
  302.603
  302.599
  302.593
  302.586
  302.576
  302.559
  302.534
  302.513
  302.527
  302.601
  302.635
  302.644
  303.87
  302.954
  302.797
  302.771
  302.795
  302.833
  302.882
  302.938
  302.931
  302.863
  302.76
  302.654
  302.57
  302.521
  302.505
  302.514
  302.535
  302.558
  302.58
  302.598
  302.611
  302.62
  302.625
  302.627
  302.629
  302.629
  302.628
  302.626
  302.623
  302.617
  302.608
  302.598
  302.586
  302.57
  302.548
  302.525
  302.524
  302.555
  302.568
  302.605
  304.018
  303.128
  302.971
  302.91
  302.899
  302.916
  302.958
  302.992
  302.959
  302.863
  302.738
  302.62
  302.535
  302.493
  302.489
  302.512
  302.545
  302.579
  302.606
  302.625
  302.637
  302.644
  302.648
  302.65
  302.651
  302.65
  302.649
  302.646
  302.641
  302.634
  302.622
  302.609
  302.595
  302.579
  302.56
  302.539
  302.531
  302.539
  302.548
  302.58
  304.245
  303.585
  303.414
  303.284
  303.194
  303.148
  303.129
  303.069
  302.95
  302.794
  302.642
  302.526
  302.462
  302.449
  302.474
  302.519
  302.569
  302.611
  302.638
  302.653
  302.661
  302.666
  302.669
  302.67
  302.671
  302.67
  302.669
  302.665
  302.66
  302.653
  302.643
  302.627
  302.614
  302.6
  302.586
  302.572
  302.569
  302.587
  302.613
  302.771
  304.568
  304.267
  303.959
  303.691
  303.482
  303.321
  303.177
  302.972
  302.737
  302.535
  302.404
  302.35
  302.358
  302.409
  302.481
  302.553
  302.615
  302.649
  302.667
  302.677
  302.682
  302.686
  302.689
  302.69
  302.691
  302.691
  302.69
  302.688
  302.686
  302.684
  302.683
  302.687
  302.692
  302.705
  302.728
  302.761
  302.803
  302.845
  302.871
  302.934
  294.408
  297.917
  299.864
  300.653
  301.007
  301.265
  301.51
  301.74
  301.957
  302.147
  302.308
  302.447
  302.559
  302.622
  302.66
  302.68
  302.691
  302.698
  302.702
  302.705
  302.708
  302.711
  302.713
  302.715
  302.717
  302.719
  302.722
  302.725
  302.729
  302.734
  302.742
  302.755
  302.775
  302.801
  302.83
  302.856
  302.872
  302.888
  295.439
  298.195
  299.781
  300.601
  301.06
  301.396
  301.679
  301.943
  302.199
  302.381
  302.507
  302.593
  302.647
  302.678
  302.696
  302.706
  302.712
  302.717
  302.72
  302.724
  302.726
  302.729
  302.732
  302.735
  302.738
  302.741
  302.745
  302.748
  302.752
  302.757
  302.764
  302.773
  302.787
  302.805
  302.825
  302.845
  302.839
  302.869
  298.268
  298.191
  298.184
  300.276
  301.123
  301.553
  301.873
  302.134
  302.328
  302.457
  302.552
  302.619
  302.665
  302.696
  302.717
  302.73
  302.738
  302.744
  302.747
  302.75
  302.752
  302.754
  302.756
  302.757
  302.759
  302.76
  302.762
  302.763
  302.765
  302.766
  302.768
  302.771
  302.774
  302.779
  302.787
  302.801
  302.812
  302.819
  302.82
  302.857
)
;

boundaryField
{
  floor
  {
    type wallHeatTransfer;
    Tinf uniform 305.2;
    alphaWall uniform 0.24;
    value nonuniform List<scalar> 29
(
  302.803
  303.114
  303.039
  303.012
  303.02
  303.033
  303.048
  303.064
  303.082
  303.1
  303.117
  303.133
  303.149
  303.164
  303.179
  303.194
  303.209
  303.226
  303.232
  303.271
  303.271
  303.126
  303.058
  303.019
  302.803
  303.114
  303.053
  302.864
  302.789
)
;
  }
  ceiling
  {
    type wallHeatTransfer;
    Tinf uniform 303.2;
    alphaWall uniform 0.24;
    value nonuniform List<scalar> 43
(
  298.593
  298.506
  298.489
  300.447
  301.25
  301.658
  301.963
  302.212
  302.397
  302.52
  302.612
  302.676
  302.722
  302.755
  302.778
  302.793
  302.804
  302.81
  302.814
  302.817
  302.819
  302.82
  302.821
  302.822
  302.822
  302.822
  302.822
  302.822
  302.821
  302.821
  302.82
  302.821
  302.822
  302.824
  302.828
  302.839
  302.848
  302.855
  302.858
  302.894
  304.505
  304.225
  295.892
)
;
  }
  sWall
  {
    type wallHeatTransfer;
    Tinf uniform 315.2;
    alphaWall uniform 0.36;
    value uniform 299.893;
  }
  nWall
  {
    type wallHeatTransfer;
    Tinf uniform 307.2;
    alphaWall uniform 0.36;
    value nonuniform List<scalar> 6
(
  303.456
  303.399
  303.316
  303.497
  303.476
  303.516
)
;
  }
  sideWalls
  {
    type empty;
  }
  glass1
  {
    type wallHeatTransfer;
    Tinf uniform 315.2;
    alphaWall uniform 4.3;
    value nonuniform List<scalar> 9
(
  311.528
  310.81
  310.352
  309.995
  309.696
  309.427
  309.215
  309.282
  309.516
)
;
  }
  glass2
  {
    type wallHeatTransfer;
    Tinf uniform 307.2;
    alphaWall uniform 4.3;
    value nonuniform List<scalar> 2
(
  305.458
  305.591
)
;
  }
  sun
  {
    type wallHeatTransfer;
    Tinf uniform 305.2;
    alphaWall uniform 0.24;
    value nonuniform List<scalar> 14
(
  303.163
  302.894
  302.881
  302.87
  302.86
  302.851
  302.842
  302.832
  302.823
  302.812
  302.802
  302.795
  302.791
  302.794
)
;
  }
  heatsource1
  {
    type fixedGradient;
    gradient uniform 0;
  }
  heatsource2
  {
    type fixedGradient;
    gradient uniform 0;
  }
  Table_master
  {
    type zeroGradient;
  }
  Table_slave
  {
    type zeroGradient;
  }
  inlet
  {
    type fixedValue;
    value uniform 290.15;
  }
  outlet
  {
    type zeroGradient;
  }
} 	// ************************************************************************* //

