// -*- C++ -*-
// File generated by PyFoam - sorry for the ugliness

FoamFile
{
 version 2.0;
 format ascii;
 class volVectorField;
 location "800";
 object U;
}

dimensions [ 0 1 -1 0 0 0 0 ];

internalField nonuniform List<vector> 459
(
  (0.0464323 0.0842786 0)
  (-0.16384 0.0221726 0)
  (-0.182588 0.0171608 0)
  (-0.212535 0.0130163 0)
  (-0.236191 0.00819262 0)
  (-0.252901 0.00304897 0)
  (-0.261584 -0.00252519 0)
  (-0.2607 -0.00865663 0)
  (-0.249268 -0.015422 0)
  (-0.227379 -0.0222581 0)
  (-0.196227 -0.028261 0)
  (-0.158024 -0.0328852 0)
  (-0.115626 -0.0366014 0)
  (-0.0755819 -0.0414053 0)
  (-0.0577705 -0.0485472 0)
  (0.0120327 0.00686375 0)
  (-0.0177776 -0.0207683 0)
  (0.00948427 -0.0268979 0)
  (0.0284806 -0.0186168 0)
  (0.0433998 -0.0119651 0)
  (0.0531184 -0.00746569 0)
  (0.0581064 -0.004528 0)
  (0.0601477 -0.00303772 0)
  (0.0608471 -0.00240294 0)
  (0.0611086 -0.00211709 0)
  (0.0612044 -0.00195313 0)
  (0.0611409 -0.00181445 0)
  (0.0608362 -0.00161594 0)
  (0.0600769 -0.0011962 0)
  (0.0583124 -0.000184423 0)
  (0.0544142 0.00191066 0)
  (0.0471895 0.00388402 0)
  (0.0432869 0.00446227 0)
  (-0.0226976 0.0208274 0)
  (0.231661 0.173902 0)
  (-0.158382 0.059665 0)
  (-0.14815 0.0497693 0)
  (-0.179547 0.0411387 0)
  (-0.202697 0.0312761 0)
  (-0.219224 0.0203472 0)
  (-0.228256 0.00784977 0)
  (-0.228164 -0.00659316 0)
  (-0.217911 -0.0224298 0)
  (-0.198037 -0.0376305 0)
  (-0.170171 -0.0497525 0)
  (-0.137177 -0.0571486 0)
  (-0.102626 -0.0597121 0)
  (-0.0717131 -0.0588171 0)
  (-0.0511824 -0.0537753 0)
  (-0.0335023 -0.0310252 0)
  (-0.00995482 0.00032394 0)
  (0.0966852 0.0211024 0)
  (0.043664 -0.0174189 0)
  (0.0438367 -0.0267205 0)
  (0.0538238 -0.0215435 0)
  (0.061398 -0.0138499 0)
  (0.0657506 -0.00720792 0)
  (0.0671744 -0.00213623 0)
  (0.0669928 0.000578874 0)
  (0.0666454 0.00173605 0)
  (0.0665619 0.00225885 0)
  (0.0666082 0.00257762 0)
  (0.0666335 0.00284525 0)
  (0.066595 0.00322776 0)
  (0.0664375 0.00405557 0)
  (0.0656126 0.00620348 0)
  (0.0616765 0.0123172 0)
  (0.0516777 0.0168735 0)
  (0.0505897 0.0181515 0)
  (-0.0652628 0.0460959 0)
  (0.400255 0.260978 0)
  (-0.182664 0.0971897 0)
  (-0.111371 0.0812041 0)
  (-0.142833 0.0646981 0)
  (-0.162927 0.0482055 0)
  (-0.177904 0.0304633 0)
  (-0.186719 0.010211 0)
  (-0.186884 -0.0131517 0)
  (-0.176768 -0.0384502 0)
  (-0.157707 -0.0621052 0)
  (-0.132011 -0.0800391 0)
  (-0.102906 -0.0898835 0)
  (-0.073653 -0.0913374 0)
  (-0.0476944 -0.0852905 0)
  (-0.0274081 -0.0712131 0)
  (-0.0109855 -0.0456836 0)
  (0.00806803 -0.0118495 0)
  (0.11317 -0.0562999 0)
  (0.0659596 -0.0483036 0)
  (0.0615267 -0.0381926 0)
  (0.0658152 -0.028183 0)
  (0.0687493 -0.0189479 0)
  (0.0702416 -0.0114068 0)
  (0.0695012 -0.00940723 0)
  (0.0670184 -0.00714007 0)
  (0.0654339 -0.00597829 0)
  (0.0649432 -0.00535213 0)
  (0.0649294 -0.00496394 0)
  (0.0650849 -0.00466057 0)
  (0.06547 -0.00429716 0)
  (0.0665538 -0.00356156 0)
  (0.0695249 -0.00054995 0)
  (0.0673217 0.0169716 0)
  (0.0527758 0.028666 0)
  (0.059911 0.0344215 0)
  (-0.101465 0.0720572 0)
  (0.549538 0.331393 0)
  (-0.223963 0.1319 0)
  (-0.071616 0.107727 0)
  (-0.103308 0.0843378 0)
  (-0.117323 0.0635003 0)
  (-0.128416 0.041124 0)
  (-0.135601 0.0145408 0)
  (-0.134543 -0.0176338 0)
  (-0.123172 -0.0527317 0)
  (-0.104642 -0.0843219 0)
  (-0.0820465 -0.106819 0)
  (-0.0584146 -0.117893 0)
  (-0.0359656 -0.1177 0)
  (-0.0166127 -0.107769 0)
  (-9.59698e-05 -0.0887507 0)
  (0.0157282 -0.0621209 0)
  (0.0381198 -0.0341874 0)
  (0.0697819 0.00181238 0)
  (0.0802247 -0.036867 0)
  (0.0663245 -0.0397969 0)
  (0.0606132 -0.0324566 0)
  (0.0605246 -0.0254676 0)
  (0.0615424 -0.0185785 0)
  (0.0637195 -0.0106178 0)
  (0.0685369 -0.0074682 0)
  (0.0754892 -0.00674705 0)
  (0.0818509 -0.00619885 0)
  (0.0870992 -0.00550462 0)
  (0.0909443 -0.00439464 0)
  (0.092647 -0.00270985 0)
  (0.0907101 -0.000265427 0)
  (0.0840168 0.00315504 0)
  (0.0701405 0.00809599 0)
  (0.0566825 0.0285889 0)
  (0.0422668 0.0454392 0)
  (0.0650391 0.0570642 0)
  (-0.146167 0.0949435 0)
  (0.675305 0.386755 0)
  (-0.27003 0.161852 0)
  (-0.0319075 0.122532 0)
  (-0.0617143 0.0954397 0)
  (-0.0673952 0.0724299 0)
  (-0.0719673 0.0476256 0)
  (-0.075438 0.0168945 0)
  (-0.0693366 -0.0229815 0)
  (-0.0551193 -0.0670137 0)
  (-0.0381247 -0.103998 0)
  (-0.0210212 -0.128068 0)
  (-0.00566487 -0.138106 0)
  (0.00738107 -0.135053 0)
  (0.0171635 -0.12186 0)
  (0.0250872 -0.101404 0)
  (0.0329518 -0.0767222 0)
  (0.0433611 -0.0532323 0)
  (0.0550852 -0.0401916 0)
  (0.0589711 -0.0435312 0)
  (0.0543917 -0.0391105 0)
  (0.0487649 -0.0316462 0)
  (0.0460767 -0.0252695 0)
  (0.045625 -0.0198135 0)
  (0.0473175 -0.0146598 0)
  (0.0513156 -0.0107727 0)
  (0.0569844 -0.00895299 0)
  (0.062616 -0.00794062 0)
  (0.0678054 -0.00653346 0)
  (0.0722156 -0.00391388 0)
  (0.0752043 0.000446014 0)
  (0.0755488 0.00634668 0)
  (0.0725119 0.0136713 0)
  (0.0657921 0.0230598 0)
  (0.0573213 0.0393889 0)
  (0.043902 0.0586354 0)
  (0.0720855 0.079499 0)
  (-0.0389584 0.109198 0)
  (0.0450978 0.0211661 0)
  (-0.072328 -0.039848 0)
  (-0.286627 -0.0633107 0)
  (0.762557 0.433953 0)
  (-0.31143 0.183551 0)
  (-0.00291439 0.117638 0)
  (-0.0185503 0.0966075 0)
  (-0.0143402 0.0755396 0)
  (-0.0108204 0.0503266 0)
  (-0.00891305 0.0168065 0)
  (0.0104888 -0.0337061 0)
  (0.0266838 -0.0825156 0)
  (0.0390952 -0.119051 0)
  (0.0474254 -0.140243 0)
  (0.0516 -0.146764 0)
  (0.0522463 -0.140894 0)
  (0.0504369 -0.125651 0)
  (0.0474678 -0.104316 0)
  (0.0447893 -0.080362 0)
  (0.04368 -0.0580345 0)
  (0.0435784 -0.0424932 0)
  (0.0409376 -0.0361525 0)
  (0.0349806 -0.0317894 0)
  (0.0289712 -0.0269972 0)
  (0.0254969 -0.0229328 0)
  (0.0245175 -0.0196922 0)
  (0.0258131 -0.016861 0)
  (0.0290959 -0.0148645 0)
  (0.0336653 -0.0141693 0)
  (0.0386655 -0.0136714 0)
  (0.0437919 -0.0122665 0)
  (0.0488384 -0.00903978 0)
  (0.0534266 -0.0031622 0)
  (0.0570792 0.00537259 0)
  (0.058189 0.0156058 0)
  (0.0574849 0.0275953 0)
  (0.0568531 0.0432348 0)
  (0.0530912 0.0623577 0)
  (0.0801261 0.0871393 0)
  (0.0489352 0.104975 0)
  (0.0973072 0.0693123 0)
  (0.122668 0.0449325 0)
  (-0.142377 -0.01294 0)
  (0.805654 0.4771 0)
  (-0.329931 0.170329 0)
  (0.0204207 0.0650498 0)
  (0.0396238 0.0753975 0)
  (0.0516941 0.0701036 0)
  (0.0619974 0.04457 0)
  (0.0789407 0.00270419 0)
  (0.103362 -0.0500523 0)
  (0.117345 -0.0948115 0)
  (0.121637 -0.125466 0)
  (0.118032 -0.140916 0)
  (0.108321 -0.142706 0)
  (0.0945259 -0.133577 0)
  (0.0787646 -0.116645 0)
  (0.0629041 -0.0951057 0)
  (0.0484666 -0.0722665 0)
  (0.036405 -0.0514952 0)
  (0.0268828 -0.0363888 0)
  (0.0185439 -0.0285332 0)
  (0.0109519 -0.0247866 0)
  (0.00503178 -0.0222221 0)
  (0.00151285 -0.0204776 0)
  (0.00010735 -0.0193902 0)
  (0.000520948 -0.0186388 0)
  (0.0024438 -0.0183396 0)
  (0.00534742 -0.0185275 0)
  (0.00878794 -0.018514 0)
  (0.0126819 -0.017506 0)
  (0.0171378 -0.0146296 0)
  (0.0222831 -0.00877184 0)
  (0.0293991 0.0010775 0)
  (0.0357512 0.0128084 0)
  (0.0410021 0.0252776 0)
  (0.0478606 0.0394383 0)
  (0.0544895 0.0552947 0)
  (0.0796526 0.0757249 0)
  (0.0905129 0.0824596 0)
  (0.126553 0.0536237 0)
  (0.169069 0.0427637 0)
  (-0.0336037 0.0964009 0)
  (0.908904 0.483381 0)
  (-0.0831132 0.152157 0)
  (0.104577 -0.0143538 0)
  (0.170146 -0.0119223 0)
  (0.175616 0.00118832 0)
  (0.17856 -0.0166055 0)
  (0.201954 -0.0491877 0)
  (0.218223 -0.0802821 0)
  (0.218715 -0.105334 0)
  (0.205611 -0.121271 0)
  (0.18299 -0.126803 0)
  (0.154477 -0.122637 0)
  (0.123296 -0.110767 0)
  (0.0922311 -0.0935516 0)
  (0.0634076 -0.0734488 0)
  (0.0383278 -0.0532264 0)
  (0.0176824 -0.0355873 0)
  (0.00232267 -0.0237247 0)
  (-0.00847017 -0.0188323 0)
  (-0.0156104 -0.0177812 0)
  (-0.0207379 -0.0176699 0)
  (-0.0242241 -0.0179216 0)
  (-0.0264727 -0.0183848 0)
  (-0.0277286 -0.0189675 0)
  (-0.0282026 -0.0196886 0)
  (-0.0281718 -0.0204667 0)
  (-0.0278264 -0.0209719 0)
  (-0.027134 -0.0207647 0)
  (-0.025853 -0.0193476 0)
  (-0.0235184 -0.0161333 0)
  (-0.0188785 -0.0103573 0)
  (-0.00663059 -0.00115457 0)
  (0.00249118 0.00976071 0)
  (0.0138288 0.0190859 0)
  (0.0256082 0.0270332 0)
  (0.0476552 0.0359926 0)
  (0.0663979 0.0277553 0)
  (0.0854183 -0.00519044 0)
  (0.147373 0.0434621 0)
  (-0.455774 0.221906 0)
  (1.05165 0.434739 0)
  (0.501876 0.285661 0)
  (0.517403 0.190613 0)
  (0.531523 0.137982 0)
  (0.490941 0.102981 0)
  (0.447857 0.0640346 0)
  (0.411554 0.0205798 0)
  (0.369565 -0.0212467 0)
  (0.32079 -0.054275 0)
  (0.268646 -0.0749815 0)
  (0.216173 -0.0831305 0)
  (0.165311 -0.0809904 0)
  (0.117694 -0.0717173 0)
  (0.0747928 -0.0580549 0)
  (0.0378009 -0.0422662 0)
  (0.00768492 -0.0270062 0)
  (-0.0154792 -0.0155615 0)
  (-0.0283078 -0.0117655 0)
  (-0.0363494 -0.0120031 0)
  (-0.042017 -0.0134783 0)
  (-0.0466462 -0.014861 0)
  (-0.0506831 -0.0160223 0)
  (-0.0543991 -0.017046 0)
  (-0.0579672 -0.0179814 0)
  (-0.0615521 -0.0188303 0)
  (-0.0653534 -0.0194759 0)
  (-0.0695653 -0.0196323 0)
  (-0.0743701 -0.0188734 0)
  (-0.0800185 -0.0166565 0)
  (-0.0869404 -0.0123216 0)
  (-0.0957209 -0.00510479 0)
  (-0.10668 0.00551782 0)
  (-0.116653 0.0186295 0)
  (-0.133295 0.0344558 0)
  (-0.160348 0.0529497 0)
  (-0.200181 0.0722193 0)
  (-0.256976 0.0869339 0)
  (-0.321088 0.0942684 0)
  (-0.393203 0.0949118 0)
  (-0.662983 0.0892332 0)
  (-0.288525 0.0143256 0)
  (0.140671 0.0586413 0)
  (0.24433 0.0497808 0)
  (0.237799 0.0296477 0)
  (0.220734 0.00520243 0)
  (0.204974 -0.0162566 0)
  (0.181396 -0.0304612 0)
  (0.150443 -0.0378379 0)
  (0.115118 -0.0389878 0)
  (0.0778229 -0.035347 0)
  (0.0411243 -0.0284559 0)
  (0.00686564 -0.0196778 0)
  (-0.0220002 -0.0115595 0)
  (-0.0401191 -0.00772194 0)
  (-0.0512274 -0.00777549 0)
  (-0.0576228 -0.0100124 0)
  (-0.0622033 -0.0123212 0)
  (-0.0661487 -0.014221 0)
  (-0.0701783 -0.0156261 0)
  (-0.0745486 -0.016685 0)
  (-0.0793614 -0.0175006 0)
  (-0.0846833 -0.018102 0)
  (-0.0905865 -0.0184485 0)
  (-0.0971337 -0.0183929 0)
  (-0.104321 -0.0176383 0)
  (-0.112015 -0.015727 0)
  (-0.119895 -0.012072 0)
  (-0.127384 -0.0060395 0)
  (-0.133649 0.00298926 0)
  (-0.137596 0.0148729 0)
  (-0.140434 0.0305077 0)
  (-0.142901 0.0501819 0)
  (-0.146295 0.0727803 0)
  (-0.151381 0.0936937 0)
  (-0.154747 0.10126 0)
  (-0.13721 0.0732001 0)
  (-0.0857575 -0.0322164 0)
  (-0.291003 -0.22655 0)
  (-0.0590083 0.219544 0)
  (0.0577486 0.105762 0)
  (0.017697 0.0465071 0)
  (0.0255111 0.0422823 0)
  (0.0312338 0.0328864 0)
  (0.0278859 0.0200293 0)
  (0.0228735 0.0100435 0)
  (0.00825022 0.00596114 0)
  (-0.0147159 0.0100216 0)
  (-0.0376915 0.0174376 0)
  (-0.0569106 0.0255371 0)
  (-0.0704349 0.0327359 0)
  (-0.0780809 0.0380321 0)
  (-0.0808665 0.0413634 0)
  (-0.0816765 0.0433772 0)
  (-0.0821104 0.0428448 0)
  (-0.0832821 0.0404626 0)
  (-0.0853755 0.0385417 0)
  (-0.0882569 0.0370943 0)
  (-0.0917395 0.0357603 0)
  (-0.0956943 0.0343332 0)
  (-0.100036 0.0327512 0)
  (-0.104697 0.0310395 0)
  (-0.109589 0.0292776 0)
  (-0.114567 0.0275716 0)
  (-0.119406 0.0260262 0)
  (-0.123781 0.0247183 0)
  (-0.127156 0.0236446 0)
  (-0.128496 0.0238327 0)
  (-0.126333 0.0274519 0)
  (-0.119039 0.0357612 0)
  (-0.105492 0.0496662 0)
  (-0.0861632 0.0688412 0)
  (-0.0625775 0.0883649 0)
  (-0.0377848 0.0996002 0)
  (0.0054759 0.0821244 0)
  (0.14564 0.00497603 0)
  (-0.208728 -0.140029 0)
  (-0.0921779 -0.349676 0)
  (-0.445526 -0.131802 0)
  (-0.333763 0.0631538 0)
  (-0.247498 -0.0449142 0)
  (-0.197479 -0.0635505 0)
  (-0.16037 -0.0607761 0)
  (-0.137329 -0.0652116 0)
  (-0.125672 -0.0721774 0)
  (-0.122172 -0.0749018 0)
  (-0.1215 -0.0732573 0)
  (-0.120863 -0.0722233 0)
  (-0.117935 -0.0740265 0)
  (-0.113323 -0.0790167 0)
  (-0.107667 -0.0870838 0)
  (-0.102051 -0.0979515 0)
  (-0.0975736 -0.110194 0)
  (-0.0948455 -0.12064 0)
  (-0.0940784 -0.127012 0)
  (-0.0952745 -0.128975 0)
  (-0.0979341 -0.128797 0)
  (-0.101373 -0.127182 0)
  (-0.1052 -0.124505 0)
  (-0.10922 -0.120945 0)
  (-0.113323 -0.116598 0)
  (-0.117413 -0.11152 0)
  (-0.121351 -0.105724 0)
  (-0.124907 -0.0991504 0)
  (-0.127718 -0.0916292 0)
  (-0.129284 -0.082839 0)
  (-0.128956 -0.0722677 0)
  (-0.125683 -0.0603273 0)
  (-0.117319 -0.0473643 0)
  (-0.100788 -0.0329075 0)
  (-0.0738654 -0.0159988 0)
  (-0.0378019 0.00417417 0)
  (0.0219552 0.0297549 0)
  (0.0743361 0.0309703 0)
  (0.124012 0.00842825 0)
  (0.17809 -0.0338816 0)
  (-0.176895 -0.103531 0)
)
;

boundaryField
{
  floor
  {
    type noSlip;
  }
  ceiling
  {
    type noSlip;
  }
  sWall
  {
    type noSlip;
  }
  nWall
  {
    type noSlip;
  }
  sideWalls
  {
    type empty;
  }
  glass1
  {
    type noSlip;
  }
  glass2
  {
    type noSlip;
  }
  sun
  {
    type noSlip;
  }
  heatsource1
  {
    type noSlip;
  }
  heatsource2
  {
    type noSlip;
  }
  Table_master
  {
    type noSlip;
  }
  Table_slave
  {
    type noSlip;
  }
  inlet
  {
    type fixedValue;
    value uniform (0.277164 -0.114805 0);
  }
  outlet
  {
    type zeroGradient;
  }
} 	// ************************************************************************* //

