/*--------------------------------*- C++ -*----------------------------------*\
  =========                 |
  \\      /  F ield         | OpenFOAM: The Open Source CFD Toolbox
   \\    /   O peration     | Website:  https://openfoam.org
    \\  /    A nd           | Version:  6
     \\/     M anipulation  |
\*---------------------------------------------------------------------------*/
FoamFile
{
    version     2.0;
    format      ascii;
    class       volScalarField;
    location    "2300";
    object      alphat;
}
// * * * * * * * * * * * * * * * * * * * * * * * * * * * * * * * * * * * * * //

dimensions      [1 -1 -1 0 0 0 0];

internalField   nonuniform List<scalar> 
459
(
0.00129081
0.0014119
0.00143588
0.00150549
0.00157031
0.001631
0.00169035
0.00174952
0.00179249
0.00181309
0.00180534
0.00176509
0.00169196
0.00159315
0.0014856
0.00058171
0.00071037
0.000788223
0.000772806
0.000740321
0.000701849
0.000657833
0.000615442
0.000577179
0.000543194
0.000513054
0.00048622
0.000462387
0.000440903
0.000421041
0.000401845
0.000381971
0.000370981
0.000341552
0.00176755
0.00437138
0.00420366
0.00490732
0.00559178
0.00627559
0.00688425
0.00733898
0.00774831
0.00808187
0.0082931
0.00832448
0.008087
0.00736469
0.00542335
0.00151178
0.000912379
0.000637599
0.00127301
0.00172319
0.00203234
0.00218005
0.00216
0.00177439
0.00154455
0.00137711
0.00124704
0.00114254
0.00105673
0.000980437
0.000909332
0.000840726
0.000780258
0.000724795
0.000871592
0.00046084
0.00216285
0.00598882
0.00523209
0.00664083
0.00735358
0.00788268
0.00829211
0.00860538
0.00893464
0.00927289
0.00958173
0.00980128
0.00986283
0.0096751
0.00899277
0.00693282
0.00147907
0.00128139
0.00178851
0.00222464
0.00259371
0.00282647
0.00272957
0.000935131
0.000827161
0.000740632
0.000670874
0.000614051
0.000567252
0.000528402
0.000496141
0.000469874
0.000504826
0.000579318
0.000986069
0.0005415
0.00254105
0.00767759
0.00527611
0.00707046
0.00775998
0.00801617
0.00816935
0.00832199
0.00857694
0.00891793
0.00930642
0.00966765
0.00993014
0.0100272
0.00985123
0.00911989
0.00682687
0.00178602
0.00223231
0.00284867
0.00338733
0.00377042
0.00397439
0.00369218
0.00104625
0.000952189
0.000885429
0.000834826
0.00079176
0.00075206
0.000714013
0.00067416
0.000627929
0.000591355
0.00060906
0.00116243
0.000600316
0.00292514
0.009827
0.00587557
0.00681508
0.00772107
0.00785582
0.00780659
0.00787269
0.00810086
0.00844959
0.00889347
0.00933024
0.00966402
0.00980825
0.00972702
0.00936981
0.0085448
0.00694735
0.00634954
0.00607547
0.0059016
0.0057623
0.00562411
0.00536967
0.00453459
0.00414236
0.00391636
0.00373958
0.00355004
0.00327347
0.00289844
0.00244648
0.00194889
0.00144829
0.00107016
0.00112521
0.000782397
0.000742894
0.000886381
0.000991008
0.00333005
0.0121437
0.00813103
0.00688167
0.00748247
0.00779754
0.00767211
0.00774525
0.00792659
0.00824695
0.00869861
0.00918558
0.00956424
0.00971123
0.00958301
0.00922629
0.0087379
0.00819457
0.00780879
0.00748222
0.00715831
0.00685232
0.00656907
0.00627226
0.00588336
0.00555118
0.00526262
0.0049892
0.00471387
0.00441762
0.00403592
0.00355144
0.00296696
0.00231753
0.0017431
0.00128277
0.00103321
0.000922876
0.00134129
0.00103755
0.00369088
0.0137235
0.0112802
0.00893819
0.00848203
0.00834827
0.00809058
0.00793339
0.00799259
0.00830332
0.00880766
0.00935747
0.00976362
0.0098771
0.0096575
0.00920414
0.00872863
0.00839696
0.00817526
0.00789779
0.00752333
0.00709859
0.00665664
0.00621759
0.0058018
0.00544609
0.00513422
0.00484978
0.00458978
0.00435919
0.0041564
0.00384167
0.00338307
0.00281891
0.00229233
0.00180033
0.00149499
0.00141687
0.00144909
0.00117078
0.00375194
0.0120483
0.0108368
0.0101982
0.0094987
0.00871622
0.00811831
0.00789389
0.00807491
0.00858683
0.00926872
0.00990175
0.0102682
0.0102394
0.00982739
0.00920777
0.00867687
0.00838431
0.00811981
0.00765531
0.0070565
0.00641887
0.00582107
0.00531764
0.00492209
0.00461311
0.00436079
0.00415284
0.003991
0.00388285
0.00383545
0.00381319
0.00357944
0.00320551
0.00289429
0.00276621
0.00292499
0.00343501
0.00446597
0.00178853
0.00364172
0.00430496
0.00477692
0.00487596
0.00507109
0.0054904
0.00620544
0.00719404
0.00834475
0.00948009
0.0104052
0.0109401
0.010963
0.0105009
0.00972933
0.00899314
0.00841962
0.00790743
0.00729221
0.00653687
0.00575345
0.00506267
0.00452282
0.00412707
0.0038358
0.00360889
0.00342059
0.00325852
0.00311587
0.00298703
0.00286744
0.00275751
0.00267296
0.00262029
0.00262099
0.0026635
0.00267358
0.00258289
0.00240656
0.00166238
0.0017937
0.0042936
0.00732518
0.0094735
0.0109719
0.0119676
0.0124854
0.0125734
0.0123113
0.0117563
0.0109622
0.00991982
0.00889853
0.00807581
0.00733743
0.00654307
0.00570989
0.00492897
0.00427645
0.00379556
0.00345809
0.00321714
0.00303641
0.00289444
0.00278054
0.00269039
0.00262322
0.00258106
0.00256877
0.00258752
0.00262574
0.00268277
0.0027541
0.00281894
0.00284838
0.00284052
0.00252683
0.00137589
0.00260829
0.00757612
0.0106312
0.0114263
0.01177
0.0117405
0.0113327
0.0106391
0.00978632
0.00888006
0.00801709
0.00720441
0.00648188
0.00579895
0.00509803
0.00443551
0.00387704
0.00344024
0.0031097
0.00286252
0.00268214
0.00255053
0.00245753
0.00239868
0.0023716
0.0023732
0.00239818
0.0024386
0.00250653
0.00259647
0.00270488
0.00282574
0.00294555
0.00304834
0.0031356
0.00317509
0.00219293
0.0014206
0.00230549
0.00244598
0.00254677
0.00272609
0.00262489
0.00251845
0.00243843
0.00232801
0.00217923
0.00199964
0.00179771
0.00158457
0.00137866
0.00120198
0.00106427
0.000962975
0.000890821
0.000840913
0.000807902
0.000788205
0.000779505
0.00077895
0.00078442
0.000795236
0.000811075
0.000831847
0.000857644
0.000888804
0.000926076
0.000970849
0.0010222
0.00108077
0.0011469
0.00122104
0.00130299
0.00139673
0.00142522
0.0012987
0.00121242
0.00137638
)
;

boundaryField
{
    floor
    {
        type            compressible::alphatWallFunction;
        Prt             0.85;
        value           nonuniform List<scalar> 
29
(
0.000209012
8.16013e-05
0.000100691
0.000112035
0.000109799
0.000105071
9.94396e-05
9.29504e-05
8.66507e-05
8.09187e-05
7.57883e-05
7.12049e-05
6.70957e-05
6.34223e-05
6.00903e-05
5.69915e-05
5.39787e-05
5.084e-05
4.90955e-05
4.43907e-05
4.43901e-05
6.31838e-05
7.55327e-05
8.43919e-05
0.00020901
8.16003e-05
8.99513e-05
0.000181301
0.000249029
)
;
    }
    ceiling
    {
        type            compressible::alphatWallFunction;
        Prt             0.85;
        value           nonuniform List<scalar> 
43
(
0.000316415
0.000334377
0.000347199
0.000370031
0.000357311
0.000343838
0.000333665
0.000319561
0.000300434
0.000277154
0.000250703
0.000222422
0.000194694
0.00017053
0.000151413
0.000137168
0.000126915
0.000119767
0.00011501
0.000112162
0.000110901
0.00011082
0.000111613
0.00011318
0.000115469
0.000118463
0.000122169
0.000126628
0.000131937
0.000138283
0.000145518
0.000153719
0.000162918
0.000173159
0.000184396
0.000197153
0.000201011
0.000183812
0.000171977
0.000194402
0.000483905
0.000564313
0.000354769
)
;
    }
    sWall
    {
        type            compressible::alphatWallFunction;
        Prt             0.85;
        value           uniform 0.000315141;
    }
    nWall
    {
        type            compressible::alphatWallFunction;
        Prt             0.85;
        value           nonuniform List<scalar> 6(0.00014078 0.000147318 0.00016586 0.000193981 0.000200037 0.000194053);
    }
    sideWalls
    {
        type            empty;
    }
    glass1
    {
        type            compressible::alphatWallFunction;
        Prt             0.85;
        value           nonuniform List<scalar> 9(0.000177962 0.000241076 0.000292126 0.000340129 0.000388182 0.000438179 0.000482257 0.000489817 0.000476676);
    }
    glass2
    {
        type            compressible::alphatWallFunction;
        Prt             0.85;
        value           nonuniform List<scalar> 2(0.000247453 0.000230915);
    }
    sun
    {
        type            compressible::alphatWallFunction;
        Prt             0.85;
        value           nonuniform List<scalar> 
14
(
0.00018261
0.000199068
0.000202309
0.00021169
0.000220381
0.000228484
0.000236374
0.000244211
0.000249882
0.000252597
0.000251575
0.000246266
0.000236586
0.000223432
)
;
    }
    heatsource1
    {
        type            compressible::alphatWallFunction;
        Prt             0.85;
        value           nonuniform List<scalar> 3(0.000105598 0.000126306 0.000141153);
    }
    heatsource2
    {
        type            compressible::alphatWallFunction;
        Prt             0.85;
        value           nonuniform List<scalar> 4(0.000212705 0.000130016 0.000130014 0.000208299);
    }
    Table_master
    {
        type            compressible::alphatWallFunction;
        Prt             0.85;
        value           nonuniform List<scalar> 9(0.000133243 0.000117807 0.000105264 9.50229e-05 8.65851e-05 7.95635e-05 7.368e-05 6.87532e-05 6.47119e-05);
    }
    Table_slave
    {
        type            compressible::alphatWallFunction;
        Prt             0.85;
        value           nonuniform List<scalar> 9(0.000148915 0.000135665 0.000126168 0.000118914 0.000112698 0.000106933 0.000101373 9.55107e-05 8.86569e-05);
    }
    inlet
    {
        type            fixedValue;
        value           uniform 1.94e-05;
    }
    outlet
    {
        type            zeroGradient;
    }
}


// ************************************************************************* //
