// -*- C++ -*-
// File generated by PyFoam - sorry for the ugliness

FoamFile
{
 version 2.0;
 format ascii;
 class volScalarField;
 location "2300";
 object T;
}

dimensions [ 0 0 0 1 0 0 0 ];

internalField nonuniform List<scalar> 459
(
  302.771
  302.49
  302.476
  302.472
  302.468
  302.463
  302.459
  302.453
  302.445
  302.435
  302.424
  302.414
  302.406
  302.403
  302.406
  302.523
  302.496
  302.486
  302.488
  302.492
  302.496
  302.5
  302.504
  302.508
  302.511
  302.515
  302.519
  302.522
  302.526
  302.529
  302.533
  302.537
  302.542
  302.563
  302.958
  302.532
  302.504
  302.505
  302.507
  302.508
  302.505
  302.499
  302.485
  302.464
  302.44
  302.417
  302.4
  302.39
  302.387
  302.385
  302.382
  302.524
  302.48
  302.471
  302.473
  302.476
  302.48
  302.481
  302.482
  302.483
  302.483
  302.484
  302.484
  302.485
  302.485
  302.487
  302.491
  302.497
  302.506
  302.544
  303.153
  302.585
  302.538
  302.546
  302.558
  302.568
  302.572
  302.568
  302.547
  302.511
  302.469
  302.43
  302.401
  302.386
  302.382
  302.384
  302.386
  302.451
  302.452
  302.46
  302.471
  302.481
  302.488
  302.487
  302.486
  302.485
  302.484
  302.483
  302.482
  302.481
  302.48
  302.48
  302.482
  302.486
  302.494
  302.535
  303.35
  302.652
  302.575
  302.587
  302.612
  302.637
  302.655
  302.655
  302.624
  302.567
  302.499
  302.441
  302.4
  302.38
  302.377
  302.384
  302.393
  302.408
  302.425
  302.447
  302.47
  302.49
  302.506
  302.518
  302.527
  302.535
  302.543
  302.549
  302.554
  302.558
  302.56
  302.562
  302.561
  302.533
  302.51
  302.5
  302.536
  303.541
  302.739
  302.622
  302.626
  302.661
  302.703
  302.741
  302.742
  302.695
  302.611
  302.518
  302.443
  302.393
  302.371
  302.371
  302.384
  302.403
  302.425
  302.45
  302.478
  302.505
  302.528
  302.547
  302.562
  302.575
  302.585
  302.593
  302.599
  302.603
  302.603
  302.6
  302.595
  302.586
  302.564
  302.535
  302.513
  302.531
  302.619
  302.658
  302.666
  303.713
  302.852
  302.706
  302.688
  302.721
  302.772
  302.819
  302.802
  302.728
  302.623
  302.514
  302.427
  302.374
  302.355
  302.364
  302.389
  302.42
  302.454
  302.489
  302.522
  302.552
  302.577
  302.596
  302.61
  302.622
  302.631
  302.637
  302.642
  302.643
  302.64
  302.632
  302.622
  302.608
  302.587
  302.558
  302.53
  302.53
  302.567
  302.584
  302.623
  303.872
  303.031
  302.891
  302.857
  302.867
  302.903
  302.898
  302.828
  302.711
  302.578
  302.458
  302.373
  302.332
  302.331
  302.359
  302.404
  302.453
  302.5
  302.543
  302.579
  302.608
  302.63
  302.646
  302.658
  302.666
  302.673
  302.677
  302.679
  302.677
  302.671
  302.66
  302.645
  302.628
  302.607
  302.581
  302.554
  302.543
  302.553
  302.565
  302.598
  304.103
  303.478
  303.325
  303.229
  303.167
  303.081
  302.94
  302.763
  302.582
  302.428
  302.321
  302.27
  302.272
  302.31
  302.372
  302.444
  302.511
  302.566
  302.61
  302.641
  302.663
  302.679
  302.691
  302.699
  302.705
  302.708
  302.71
  302.709
  302.705
  302.699
  302.689
  302.673
  302.656
  302.637
  302.618
  302.598
  302.593
  302.61
  302.637
  302.797
  304.435
  304.139
  303.838
  303.542
  303.249
  302.92
  302.595
  302.333
  302.161
  302.082
  302.082
  302.139
  302.232
  302.334
  302.434
  302.531
  302.598
  302.642
  302.673
  302.695
  302.71
  302.721
  302.728
  302.733
  302.736
  302.738
  302.737
  302.736
  302.734
  302.732
  302.73
  302.732
  302.736
  302.746
  302.765
  302.795
  302.835
  302.875
  302.904
  302.975
  293.513
  295.765
  297.598
  298.834
  299.784
  300.534
  301.119
  301.568
  301.909
  302.168
  302.369
  302.491
  302.577
  302.639
  302.68
  302.707
  302.726
  302.739
  302.748
  302.754
  302.759
  302.762
  302.764
  302.766
  302.767
  302.769
  302.77
  302.772
  302.775
  302.778
  302.785
  302.795
  302.812
  302.835
  302.862
  302.887
  302.906
  302.95
  294.683
  297.152
  299.245
  300.268
  300.93
  301.417
  301.785
  302.063
  302.276
  302.436
  302.553
  302.63
  302.681
  302.716
  302.739
  302.754
  302.764
  302.771
  302.776
  302.779
  302.782
  302.784
  302.786
  302.788
  302.79
  302.792
  302.794
  302.796
  302.799
  302.802
  302.807
  302.815
  302.826
  302.842
  302.859
  302.877
  302.898
  302.925
  298.231
  298.154
  298.149
  300.43
  301.356
  301.767
  302.023
  302.219
  302.373
  302.494
  302.588
  302.659
  302.71
  302.745
  302.769
  302.785
  302.795
  302.802
  302.807
  302.81
  302.811
  302.813
  302.813
  302.814
  302.815
  302.815
  302.815
  302.816
  302.816
  302.817
  302.817
  302.819
  302.821
  302.825
  302.83
  302.84
  302.851
  302.857
  302.915
  303.017
)
;

boundaryField
{
  floor
  {
    type wallHeatTransfer;
    Tinf uniform 305.2;
    alphaWall uniform 0.24;
    value nonuniform List<scalar> 29
(
  302.666
  303.012
  302.928
  302.889
  302.896
  302.912
  302.931
  302.954
  302.978
  303.002
  303.026
  303.048
  303.07
  303.09
  303.11
  303.13
  303.15
  303.172
  303.187
  303.236
  303.236
  303.108
  303.046
  303.012
  302.666
  303.012
  302.984
  302.736
  302.633
)
;
  }
  ceiling
  {
    type wallHeatTransfer;
    Tinf uniform 303.2;
    alphaWall uniform 0.24;
    value nonuniform List<scalar> 43
(
  298.557
  298.47
  298.454
  300.588
  301.465
  301.854
  302.097
  302.283
  302.43
  302.546
  302.637
  302.706
  302.758
  302.795
  302.82
  302.838
  302.85
  302.858
  302.864
  302.867
  302.869
  302.871
  302.871
  302.871
  302.871
  302.87
  302.869
  302.868
  302.867
  302.865
  302.864
  302.864
  302.864
  302.865
  302.868
  302.875
  302.884
  302.892
  302.946
  303.035
  304.379
  304.103
  295.188
)
;
  }
  sWall
  {
    type wallHeatTransfer;
    Tinf uniform 315.2;
    alphaWall uniform 0.36;
    value uniform 299.852;
  }
  nWall
  {
    type wallHeatTransfer;
    Tinf uniform 307.2;
    alphaWall uniform 0.36;
    value nonuniform List<scalar> 6
(
  303.472
  303.412
  303.326
  303.548
  303.513
  303.605
)
;
  }
  sideWalls
  {
    type empty;
  }
  glass1
  {
    type wallHeatTransfer;
    Tinf uniform 315.2;
    alphaWall uniform 4.3;
    value nonuniform List<scalar> 9
(
  311.205
  310.513
  310.08
  309.753
  309.482
  309.239
  309.065
  309.15
  309.399
)
;
  }
  glass2
  {
    type wallHeatTransfer;
    Tinf uniform 307.2;
    alphaWall uniform 4.3;
    value nonuniform List<scalar> 2
(
  305.489
  305.621
)
;
  }
  sun
  {
    type wallHeatTransfer;
    Tinf uniform 305.2;
    alphaWall uniform 0.24;
    value nonuniform List<scalar> 14
(
  303.022
  302.752
  302.735
  302.722
  302.71
  302.699
  302.689
  302.677
  302.666
  302.654
  302.645
  302.64
  302.641
  302.649
)
;
  }
  heatsource1
  {
    type fixedGradient;
    gradient uniform 0;
  }
  heatsource2
  {
    type fixedGradient;
    gradient uniform 0;
  }
  Table_master
  {
    type zeroGradient;
  }
  Table_slave
  {
    type zeroGradient;
  }
  inlet
  {
    type fixedValue;
    value uniform 290.15;
  }
  outlet
  {
    type zeroGradient;
  }
} 	// ************************************************************************* //

