/*--------------------------------*- C++ -*----------------------------------*\
  =========                 |
  \\      /  F ield         | OpenFOAM: The Open Source CFD Toolbox
   \\    /   O peration     | Website:  https://openfoam.org
    \\  /    A nd           | Version:  6
     \\/     M anipulation  |
\*---------------------------------------------------------------------------*/
FoamFile
{
    version     2.0;
    format      ascii;
    class       surfaceScalarField;
    location    "1200";
    object      phi;
}
// * * * * * * * * * * * * * * * * * * * * * * * * * * * * * * * * * * * * * //

dimensions      [1 0 -1 0 0 0 0];

internalField   nonuniform List<scalar> 
852
(
-0.00305697
0.0031171
-0.00415152
0.00109456
-0.00495841
0.000806894
-0.00556505
0.000606642
-0.00593785
0.000372807
-0.00605138
0.000113546
-0.00588379
-0.000167583
-0.00542863
-0.000455151
-0.00472131
-0.000707317
-0.00383748
-0.000883818
-0.00287563
-0.000961849
-0.0019392
-0.000936417
-0.00112432
-0.000814872
-0.000487266
-0.000637051
-0.000485091
-0.000845958
0.000849725
-0.000533134
-0.000312822
0.000141117
-0.00067425
0.000696129
-0.000555011
0.00107753
-0.000381395
0.0013223
-0.000244773
0.00145681
-0.000134515
0.00152175
-6.49404e-05
0.00155766
-3.59091e-05
0.00157972
-2.20625e-05
0.00159232
-1.25976e-05
0.00159707
-4.75474e-06
0.00159232
4.75388e-06
0.0015695
2.28101e-05
0.00150523
6.42669e-05
0.00136017
0.000145065
0.00112118
0.000238982
0.000821181
0.000299994
0.000826224
-0.00217879
0.00545748
-0.00323709
0.00215287
-0.00406453
0.00163434
-0.00466309
0.00120521
-0.00503176
0.000741493
-0.00515315
0.000234937
-0.00500363
-0.000317089
-0.00458561
-0.000873162
-0.00394741
-0.00134551
-0.00317015
-0.00166107
-0.00234436
-0.00178762
-0.00155212
-0.00172866
-0.000865985
-0.001501
-0.000352429
-0.0011506
-0.000101833
-0.000735681
0.000137587
-0.000239466
0.000137539
0.000315443
0.000545227
0.000755312
-0.00075269
0.00104263
-0.000961571
0.00128864
-0.000801017
0.00148138
-0.000574126
0.00160249
-0.000365884
0.00162371
-0.000155733
0.0016286
-6.98321e-05
0.00163457
-4.18771e-05
0.00163957
-2.70676e-05
0.00164284
-1.58724e-05
0.00164451
-6.42451e-06
0.00164378
5.48762e-06
0.00163691
2.96767e-05
0.00159346
0.000107709
0.0014073
0.000331228
0.0010897
0.000556571
0.000697328
0.000692365
0.00153642
-0.00152171
0.00722613
-0.00243095
0.00306211
-0.00316279
0.00236619
-0.00367362
0.00171605
-0.00398967
0.00105755
-0.0040864
0.000331668
-0.0039201
-0.00048338
-0.00350312
-0.00129013
-0.00290778
-0.00194085
-0.0022229
-0.00234594
-0.00152686
-0.00248364
-0.000874825
-0.00238068
-0.000311875
-0.00206394
0.000136375
-0.00159884
0.000427185
-0.00102648
0.000544775
-0.000357049
0.000682319
0.00162251
-0.00106542
0.00185484
-0.000985014
0.00180586
-0.000912594
0.00179378
-0.000788936
0.00182021
-0.000600553
0.00185871
-0.000404383
0.00170313
0.00163346
0.00159173
0.00156482
0.0015491
0.00154283
0.00154847
0.0015783
0.00168616
0.00137797
0.000639408
0.00101363
0.00092091
0.000576774
0.00112922
0.00213264
-0.00105756
0.0086034
-0.00177358
0.00377813
-0.00225402
0.00284664
-0.00258234
0.00204437
-0.00277089
0.0012461
-0.00276995
0.000330736
-0.002521
-0.000732319
-0.00207892
-0.00173219
-0.00154049
-0.00247926
-0.000985615
-0.00290081
-0.000465022
-0.00300422
1.1649e-07
-0.00284581
0.000400015
-0.00246383
0.000741195
-0.00194001
0.00105219
-0.00133747
0.00141864
-0.000723493
0.00231751
-0.00021655
0.00268641
-0.000358298
0.00227883
-0.000657836
0.0021238
-0.000829975
0.00198402
-0.000772805
0.00186303
-0.000667949
0.00179079
-0.000528305
0.00174064
-0.000354234
0.00189197
-0.000151485
0.00198318
-9.13661e-05
0.00205307
-7.00491e-05
0.00210279
-4.98669e-05
0.00211645
-1.38251e-05
0.00207194
4.43586e-05
0.00194418
0.0001276
0.00170003
0.000244
0.00128193
0.000417941
0.00112557
0.000795764
0.000798737
0.00124774
0.000310919
0.00161703
0.00246898
-0.000736082
0.00972107
-0.00127393
0.00431598
-0.00136387
0.00293659
-0.00140492
0.00208543
-0.00137665
0.00121784
-0.00115201
0.0001061
-0.000742892
-0.00114143
-0.000288363
-0.00218671
0.00013104
-0.00289865
0.00047943
-0.00324918
0.000750658
-0.00327544
0.000953124
-0.00304826
0.00111763
-0.00262832
0.00126741
-0.00208979
0.001433
-0.00150305
0.00165992
-0.000950411
0.00199032
-0.000546947
0.00209171
-0.000459676
0.00199131
-0.000557436
0.00179364
-0.000632301
0.00162025
-0.000599411
0.00147466
-0.00052236
0.0013705
-0.000424147
0.0013235
-0.00030723
0.00136968
-0.000197672
0.00142558
-0.000147262
0.00148455
-0.000129025
0.00154223
-0.000107553
0.00158612
-5.77186e-05
0.00159494
3.55343e-05
0.00154812
0.000174414
0.00143435
0.000357767
0.00125633
0.000595958
0.00109655
0.000955534
0.000920727
0.00142356
0.000519346
0.0020184
0.000404864
0.00258346
-0.00110934
0.00151399
-0.0015736
0.000464045
-0.00151924
-0.000636007
0.0107909
-0.000992412
0.00467239
-0.000529794
0.00247398
-8.54431e-05
0.00164109
0.000356883
0.000775514
0.000906021
-0.000443035
0.00141936
-0.00165477
0.00178293
-0.00255027
0.00197873
-0.00309443
0.00203648
-0.00330692
0.00199449
-0.00323343
0.00188595
-0.00293971
0.00175305
-0.00249541
0.0016324
-0.00196913
0.00155204
-0.00142268
0.00153129
-0.000929657
0.00155699
-0.00057265
0.00151784
-0.000420522
0.00137776
-0.000417353
0.00118098
-0.000435513
0.00100114
-0.000419578
0.000858111
-0.00037933
0.000760959
-0.000326996
0.000721435
-0.000267708
0.000742162
-0.000218403
0.000795563
-0.000200668
0.000866731
-0.000200198
0.000949208
-0.000190035
0.00103612
-0.000144639
0.00111105
-3.94004e-05
0.00115514
0.000130321
0.0011691
0.000343805
0.00116079
0.000604255
0.00117867
0.000937654
0.0012759
0.00132632
0.00146099
0.00183331
0.00196107
0.00208337
0.00225022
0.00122483
0.00186372
0.000850539
0.000409512
-0.000658248
0.0119308
-0.000499106
0.00451326
0.000757737
0.00121714
0.00172177
0.000677061
0.002612
-0.000114723
0.00339471
-0.00122573
0.00385098
-0.00211103
0.00398758
-0.00268685
0.00386041
-0.00296724
0.00354121
-0.0029877
0.00310328
-0.00279548
0.00261274
-0.00244916
0.00212951
-0.00201218
0.00169995
-0.00153957
0.00134849
-0.00107122
0.00108878
-0.000669938
0.000909054
-0.000392927
0.000753814
-0.000265282
0.000582716
-0.000246256
0.000406315
-0.000259114
0.000251732
-0.000264997
0.000132973
-0.000260574
5.66006e-05
-0.000250628
2.85947e-05
-0.000239707
4.69561e-05
-0.00023677
9.6075e-05
-0.000249793
0.000164348
-0.000268477
0.000249658
-0.000275352
0.000356068
-0.000251057
0.000488148
-0.000171488
0.000626128
-7.66646e-06
0.000760404
0.000209523
0.000907652
0.000457
0.00110581
0.000739487
0.00140706
0.00102507
0.0018876
0.00135277
0.00263257
0.00133839
0.00323592
0.000621474
0.00329623
0.00079022
0.00377488
0.00280504
0.00966506
0.00360254
0.00371577
0.00426503
0.00055466
0.00532633
-0.000384235
0.00624503
-0.00103341
0.00665499
-0.00163569
0.00661114
-0.00206715
0.00619551
-0.0022712
0.0055054
-0.00227711
0.00464642
-0.00212871
0.00371852
-0.00186756
0.00280582
-0.00153645
0.00197504
-0.0011814
0.00127186
-0.000836388
0.000709733
-0.000509094
0.000304099
-0.000264307
3.67706e-05
-0.000125602
-0.000147009
-8.15056e-05
-0.000297524
-9.57435e-05
-0.00043083
-0.000125811
-0.000543179
-0.000152653
-0.000629659
-0.000174099
-0.000687619
-0.000192674
-0.000715893
-0.00021144
-0.000718207
-0.000234463
-0.000704812
-0.000263196
-0.000682363
-0.000290934
-0.000649986
-0.000307737
-0.000598106
-0.000302944
-0.000505668
-0.000263934
-0.000341468
-0.000171874
-0.000135425
3.47175e-06
9.60245e-05
0.000225544
0.000381163
0.000454341
0.000722962
0.00068326
0.00117071
0.000905015
0.00163642
0.000872673
0.00175574
0.000502154
0.000928305
0.00161764
0.004999
0.0102631
0.0139755
0.013023
0.00150718
0.0123875
0.000251287
0.0115781
-0.000224021
0.0104752
-0.000532752
0.00910628
-0.000698214
0.00758906
-0.000753948
0.00602917
-0.000717198
0.00451806
-0.000617584
0.00313168
-0.000481171
0.00192209
-0.000326859
0.000918484
-0.000177794
0.000127629
-4.55391e-05
-0.000427406
4.59332e-05
-0.000758297
6.65767e-05
-0.000942756
5.88516e-05
-0.00105846
3.41912e-05
-0.00115388
-3.29457e-07
-0.00124306
-3.66324e-05
-0.00132475
-7.09724e-05
-0.00139697
-0.000101888
-0.00145947
-0.000130185
-0.00151438
-0.000156533
-0.00156725
-0.000181599
-0.00162683
-0.000203629
-0.00170138
-0.000216391
-0.00179885
-0.000210279
-0.00192881
-0.00017299
-0.00210378
-8.89744e-05
-0.00233088
5.52182e-05
-0.00259581
0.000268393
-0.0029405
0.000570224
-0.00346619
0.000980024
-0.00427078
0.00148785
-0.00540727
0.00204149
-0.00698181
0.00244721
-0.00884035
0.00236068
-0.00819127
0.000968565
-0.00286377
0.00438823
0.00336138
0.00334457
0.00129502
0.00359185
-0.000471278
0.00348252
-0.000423414
0.00297796
-0.000193664
0.00224611
-2.21072e-05
0.00140555
0.000123354
0.000558417
0.000229534
-0.00020788
0.000285108
-0.0008242
0.000289451
-0.00126583
0.000263829
-0.00154461
0.00023323
-0.00169354
0.000194858
-0.0017759
0.000148925
-0.00182551
0.000108458
-0.00186573
7.43969e-05
-0.00191029
4.42292e-05
-0.00196482
1.78877e-05
-0.00202879
-7.01331e-06
-0.00209767
-3.30177e-05
-0.00217111
-5.67561e-05
-0.00225148
-7.61697e-05
-0.0023425
-9.05875e-05
-0.00244767
-9.84636e-05
-0.00256789
-9.61806e-05
-0.00270018
-7.79979e-05
-0.00283595
-3.7226e-05
-0.00296056
3.5625e-05
-0.00306609
0.000160743
-0.00315678
0.000359068
-0.00324277
0.000656212
-0.00333584
0.00107308
-0.00344001
0.00159201
-0.00349397
0.00209545
-0.0034009
0.00235413
-0.00295361
0.00191339
-0.00162184
-0.000363221
-0.00440047
-0.000811448
0.00425675
-0.000414355
0.000897929
-0.00112423
0.000238589
-0.00167443
0.000126777
-0.00204891
0.000180796
-0.00231602
0.000244982
-0.00249226
0.000299579
-0.00260476
0.00034202
-0.00266837
0.000348707
-0.00269487
0.000315933
-0.00269284
0.000261796
-0.00266507
0.000205443
-0.00262314
0.000152926
-0.00258258
0.000108349
-0.00254908
7.49472e-05
-0.00252527
5.05796e-05
-0.00251304
3.1995e-05
-0.00251201
1.6848e-05
-0.00252183
2.79451e-06
-0.00254117
-1.36867e-05
-0.0025703
-2.76418e-05
-0.00260869
-3.77874e-05
-0.00265568
-4.36058e-05
-0.00270988
-4.42775e-05
-0.00276807
-3.79927e-05
-0.00282446
-2.16204e-05
-0.00287053
8.83587e-06
-0.00289084
5.59215e-05
-0.0028621
0.000131999
-0.00275666
0.000253616
-0.00253853
0.000438075
-0.00217894
0.000713481
-0.00168269
0.00109576
-0.00103363
0.00144637
-5.55426e-06
0.00132605
0.00129348
0.000614345
0.00158927
-0.000659018
-0.00271752
-0.00794487
-0.0112116
-0.00690008
-0.0059743
-0.00571664
-0.00557445
-0.00538048
-0.00512388
-0.00481374
-0.00446183
-0.00410354
-0.00377805
-0.00350651
-0.00329108
-0.00312789
-0.00300901
-0.00292328
-0.00286167
-0.00281842
-0.00279014
-0.00277579
-0.00277788
-0.00279392
-0.00282018
-0.00285237
-0.00288538
-0.0029123
-0.00292307
-0.00290366
-0.00283748
-0.00269556
-0.00243239
-0.00198517
-0.00126297
-0.000158961
0.00129498
0.00262828
0.00324986
0.00259836
)
;

boundaryField
{
    floor
    {
        type            calculated;
        value           nonuniform List<scalar> 
29
(
0
0
0
0
0
0
0
0
0
0
0
0
0
0
0
0
0
0
0
0
-5.04829e-06
-1.2873e-05
-1.94508e-05
-2.54274e-05
-2.17037e-06
-3.76655e-06
-1.09449e-05
-1.18638e-05
-1.05943e-05
)
;
    }
    ceiling
    {
        type            calculated;
        value           nonuniform List<scalar> 
43
(
-5.87532e-05
-5.65525e-05
-5.47861e-05
-2.78683e-05
-1.90929e-05
-1.54358e-05
-1.31904e-05
-1.1632e-05
-1.0575e-05
-9.90885e-06
-9.58963e-06
-9.57176e-06
-9.74957e-06
-1.00052e-05
-1.02739e-05
-1.05368e-05
-1.07928e-05
-1.10391e-05
-1.12628e-05
-1.14437e-05
-1.15644e-05
-1.16144e-05
-1.1604e-05
-1.15408e-05
-1.14303e-05
-1.12768e-05
-1.10835e-05
-1.08523e-05
-1.05826e-05
-1.02732e-05
-9.93163e-06
-9.55919e-06
-9.15709e-06
-8.72477e-06
-8.25979e-06
-7.57369e-06
-7.26225e-06
-7.2416e-06
-7.52581e-06
-7.21441e-06
5.77122e-06
3.40963e-06
-8.39033e-05
)
;
    }
    sWall
    {
        type            calculated;
        value           uniform -0.000277811;
    }
    nWall
    {
        type            calculated;
        value           nonuniform List<scalar> 6(-5.45681e-05 -6.50458e-05 -6.91443e-05 -8.51423e-05 -9.36949e-05 -0.000111952);
    }
    sideWalls
    {
        type            empty;
        value           nonuniform 0();
    }
    glass1
    {
        type            calculated;
        value           nonuniform List<scalar> 9(-6.0125e-05 -0.000161577 -0.00024694 -0.000319699 -0.000381577 -0.000433839 -0.000481573 -0.000539339 -0.000603836);
    }
    glass2
    {
        type            calculated;
        value           nonuniform List<scalar> 2(-0.000295818 -0.000328516);
    }
    sun
    {
        type            calculated;
        value           uniform 0;
    }
    heatsource1
    {
        type            calculated;
        value           nonuniform List<scalar> 3(2.05117e-07 2.05005e-07 2.05026e-07);
    }
    heatsource2
    {
        type            calculated;
        value           nonuniform List<scalar> 4(5.1463e-08 5.15505e-08 0 0);
    }
    Table_master
    {
        type            calculated;
        value           nonuniform List<scalar> 9(-1.53841e-07 -1.53944e-07 -1.53979e-07 -1.54003e-07 -1.5402e-07 -1.54031e-07 -1.54036e-07 -1.5403e-07 -1.53996e-07);
    }
    Table_slave
    {
        type            calculated;
        value           nonuniform List<scalar> 9(1.53691e-07 1.53715e-07 1.53691e-07 1.53673e-07 1.53668e-07 1.53671e-07 1.53691e-07 1.53741e-07 1.53833e-07);
    }
    inlet
    {
        type            calculated;
        value           uniform -0.0062424;
    }
    outlet
    {
        type            calculated;
        value           nonuniform List<scalar> 2(0.00828142 0.00332325);
    }
}


// ************************************************************************* //
