/*--------------------------------*- C++ -*----------------------------------*=========                 |
  \      /  F ield         | OpenFOAM: The Open Source CFD Toolbox
   \    /   O peration     | Website:  https://openfoam.org
    \  /    A nd           | Version:  6
     \/     M anipulation  |
\*---------------------------------------------------------------------------*/
FoamFile
{
    version     2.0;
    format      ascii;
    class       volScalarField;
    location    "2800";
    object      PPD;
}
// * * * * * * * * * * * * * * * * * * * * * * * * * * * * * * * * * * * * * //

dimensions      [0 0 0 0 0 0 0];

internalField   nonuniform List<scalar> 
459
(
59.372805040148506
47.628462884555425
46.2234467159724
45.00050987063253
44.181510463286266
43.68574765330224
43.5454159283617
43.75218822412857
44.26998691794027
45.188293637380475
46.53580636449267
48.48434782313371
51.045843498888054
53.003645572398895
53.237824903982805
56.74898845362131
56.07355661657692
55.81360876101267
55.89160157586679
56.047565553042524
56.17751209590773
56.08688168739052
55.86621466745535
55.82995635124887
55.8753904191374
55.952266646541574
56.0787545929378
56.1846536677144
56.36545670083227
56.65004292544703
57.158708962627955
57.656963378598554
57.838348657890144
58.485485401181826
57.329720234181515
48.7889957877439
48.32174182970626
47.20150545911478
46.519955180455725
46.125018850717915
46.030686465620015
46.1402524052661
46.387178040199686
46.83765458539745
47.631026507012194
48.93357490110584
50.79509728507571
52.53538972116316
52.58740998139392
52.58740998139392
52.58740998139392
54.816809026909716
55.553585022028834
55.34551863120089
55.42671805535315
55.10580231685313
54.862169122980674
54.779441583871034
54.83343892645644
54.894159674408414
54.93708673839464
54.9455962792518
54.983885145437114
55.03046088323023
55.088701049719205
55.22560346051205
55.64267403083176
56.64512160807085
56.9307108208004
56.520004205125154
59.60261763456988
48.94880431977595
50.26378004079196
49.72466375106777
49.589184262909754
49.57168504482032
49.65369093414737
49.67336298633092
49.443044652455654
49.06669694130474
48.86383729331358
49.19232411493249
50.18058242570704
51.867881378902354
52.43135624706941
52.561399566385795
52.63943247895021
49.8726943075277
52.03749550925458
52.72377817409749
53.21180720640318
53.75938794408468
54.13359548491761
54.319526228009536
54.75930418626313
55.066617577238745
55.20691320700975
55.267154917388865
55.296552283861345
55.29492318209711
55.243852846622175
55.008006743241225
55.109220387349424
56.06027978931251
55.663416324435985
53.193780027826925
63.668714272236535
49.25069292232141
51.77425152278674
52.32830361525604
53.30684889549792
54.15191356614947
54.801993847679014
54.55109980690032
53.11400676793099
51.1353520082647
49.46552559980846
48.63138199164526
48.78458064976137
49.93234905579963
51.634258643832965
52.613420955733744
51.745043722953014
49.55330224516599
49.497632070584565
50.99669275826927
52.40640230879578
53.561872744775584
54.579340980765075
55.347278172365314
55.61084762457159
55.52873764899606
55.499958982127055
55.536060154625865
55.612735285512976
55.79777492166782
56.16535450361388
56.798542010085015
58.00766227155705
57.67898977371292
56.87695812956024
54.591522819816454
50.80300094564149
68.34612414003855
50.37321434688289
53.27256193143339
54.855017627769435
57.45788452051268
60.40930119401804
61.674620109568174
59.16880894932359
55.26286298634956
51.49966015637379
48.8406664715349
47.373388165430214
47.21777056719211
48.1276821864493
49.7158471796936
51.13441196685551
51.49632346768228
51.338727083371566
51.77953908103833
53.11535395083003
54.725324332225256
56.18808456346285
57.408614076590055
58.334559946244106
58.860728104776754
58.977307631778196
59.00900232399472
58.99325626412375
58.94255675819505
58.834679787940644
58.82589922935883
58.87775935732877
58.975549378342826
58.227045024226875
56.81064232293637
53.618758224983026
53.29152332392072
60.31638785818217
59.611003556158096
50.81567761243945
72.796486500703
52.70725707879615
56.131894456565185
57.76317024850937
61.47014532751987
62.9984201872881
62.32345227086445
58.03518626182395
53.80967918430593
49.95639273071533
47.11341745599019
45.6706414309389
45.71002029056007
46.95957855170071
48.97841286625504
51.177718052496076
52.84303271844216
54.01498391004164
55.310553220713295
56.96024840311694
57.99375933172276
58.795704911726
59.44104519762969
59.930559720809924
60.34208892852315
60.67595658013523
60.9068195307817
61.060598041971176
61.137447377828515
61.060598041971176
60.88117955651565
60.62462257416172
60.166139630055085
58.80103956114625
56.96620868710074
53.60633338015131
53.47697874778955
54.339840025086176
54.29896251272726
54.97009805896545
76.96573023196298
57.88270799351886
64.28131287751776
62.90861865963995
62.723789625448056
61.31063370523138
58.39426409834959
54.42546639090395
50.12949075315103
46.445475383550885
44.13441284346553
43.515884906810584
44.4701022171504
46.70575513106254
49.7942612726652
53.1626167675971
55.42354806186664
56.723023437032815
57.86425451089672
58.899048105088475
59.750312781621254
60.47055412392699
61.00935029365547
61.41899499267527
61.72570673056799
61.95543434730763
62.08294410144087
62.15940920408192
62.1339242576842
61.98094303910491
61.674620109568174
61.29106473905873
60.855536690632924
60.22331465219259
58.04572449798192
54.92187123683935
53.70775922068206
53.15026534221325
51.78392054316366
56.37782764877759
82.56165315606214
74.30690062650734
72.18777272513552
67.19290643045252
64.09732143604776
59.69054446564744
54.04249195291771
48.254136864264865
43.56503169175828
40.744982694123586
40.07303368958204
41.446138508018095
44.39935019075998
48.51195923556701
53.39867479923445
55.6836057035241
57.475503225962846
58.899048105088475
59.98203661913332
60.829890944037565
61.495715787130095
62.006448371276626
62.388617816891674
62.66837222833761
62.84616857381319
62.94768470583875
62.9984201872881
62.97305433761309
62.8715532259467
62.69378274990024
62.41406791895534
62.006448371276626
61.57240820410783
61.060598041971176
60.47055412392699
59.87907287096126
58.807132134855244
58.18693413482071
54.912092916263326
50.34585649853377
89.28023627389581
85.00115447052006
78.40583488711361
69.85744256736633
58.920828700529945
47.19465831995891
38.31997677690305
33.21121068862786
31.64147822008256
32.98014253837262
36.64934726564944
42.12105167443603
48.63149665827676
53.15976207520132
56.151524563892195
58.56306634956899
60.08496021185164
61.137447377828515
61.90440692828518
62.490396917390555
62.92231130276536
63.0226888617903
62.97809458472314
62.87850660646491
62.75101805981954
62.56842139455686
62.30861745879744
61.95790183927092
61.55168264741013
61.03625177466135
60.41615187082368
59.761725302805935
59.154866764133374
58.38249165072296
57.508165780628204
56.76115225225652
56.2700095163991
55.9898653088929
55.386651770053426
53.76241063264382
98.99357211495688
68.88736928029195
32.24879118191939
8.167147220875037
5.605817853770674
12.673736230344119
24.333523262934932
36.149585934857164
44.4999954633831
51.23585396057994
55.241471528368336
58.01965533081888
59.164771113864056
60.03380840689713
60.717857540489426
61.17376216436714
61.487504080384284
61.63038219721909
61.67536515671939
61.6405512562162
61.53048198102434
61.36323402308795
61.154866509910725
60.89754280638616
60.61590817331176
60.31673577561341
60.01381878169146
59.752217221320834
59.55375681440776
59.38604306571159
59.29668801462519
59.24235239025226
59.19830981892143
59.31110727008236
59.88045966531765
61.780056382108995
65.5478723513221
57.204979097203704
92.70172420691287
26.061080889990933
5.041954389881596
11.97821825096706
22.14750947066966
30.711510742853974
38.12242523446836
44.25876266490267
49.18009347791547
52.89472121632501
55.407482356656004
57.166338698160736
58.41631390921067
59.2848359732969
59.89635233099732
60.29268175531207
60.55389463005439
60.689164404690445
60.767787868966685
60.8157285641072
60.822109084101655
60.78427025987443
60.72796925211879
60.65433426544665
60.54110053211825
60.449577789278116
60.36746559863409
60.31965079163793
60.33804539129347
60.52462974273853
60.89913211692447
61.51082316140281
62.15333543338249
62.697128026157834
63.329342175984905
65.34874583230723
61.923679576216365
59.28405518957067
20.45402109612175
25.894276929824088
21.136474779406967
7.926971041232946
21.658967074000742
30.715498512533614
37.07118141010065
42.31834624658823
46.71146290805705
50.345595813143326
53.27143623204033
55.54994108269479
57.17552823741889
58.287969490467205
58.99557133042218
59.421516129029534
59.62621235865616
59.703797252667044
59.68986238763038
59.666541683552275
59.649762000187714
59.64146534337592
59.65135147371925
59.67726608990383
59.69082598366021
59.72052077634908
59.799386827671896
59.886069685168366
60.02865664811688
60.28068589469572
60.652724360621725
61.26546805235286
62.401184498254864
64.41615905853898
65.8874730113192
66.21018523822275
64.4767438234844
62.262550673046775
60.037668366528955
60.28574149904479
)
;

boundaryField
{
    ".*"
    {
        type            zeroGradient;
    }
}


// ************************************************************************* //
