// -*- C++ -*-
// File generated by PyFoam - sorry for the ugliness

FoamFile
{
 version 2.0;
 format ascii;
 class volVectorField;
 location "2800";
 object U;
}

dimensions [ 0 1 -1 0 0 0 0 ];

internalField nonuniform List<vector> 459
(
  (0.0332328 0.0882662 0)
  (-0.17175 0.026512 0)
  (-0.196997 0.0178645 0)
  (-0.22772 0.0118642 0)
  (-0.249312 0.00530243 0)
  (-0.2608 -0.00156079 0)
  (-0.260721 -0.00873193 0)
  (-0.248447 -0.0161685 0)
  (-0.22493 -0.0231121 0)
  (-0.192255 -0.0284597 0)
  (-0.153893 -0.0313846 0)
  (-0.11364 -0.0315968 0)
  (-0.0750836 -0.0294283 0)
  (-0.0432724 -0.0262783 0)
  (-0.0332897 -0.0239224 0)
  (-0.00315724 0.00875067 0)
  (-0.0282137 -0.0195733 0)
  (-0.00258426 -0.0296291 0)
  (0.0219075 -0.0221419 0)
  (0.0393455 -0.0149762 0)
  (0.0526211 -0.00960522 0)
  (0.0606293 -0.0057066 0)
  (0.0646518 -0.00366421 0)
  (0.0664433 -0.0027947 0)
  (0.067346 -0.00237772 0)
  (0.0679045 -0.00210592 0)
  (0.0681955 -0.00188279 0)
  (0.0681525 -0.00161647 0)
  (0.0675615 -0.00112785 0)
  (0.065834 -1.91531e-05 0)
  (0.0617152 0.00226299 0)
  (0.0538452 0.00465682 0)
  (0.0466724 0.00662036 0)
  (-0.0142661 0.0229756 0)
  (0.209532 0.18034 0)
  (-0.158768 0.0697837 0)
  (-0.157481 0.0530006 0)
  (-0.188902 0.0403486 0)
  (-0.210083 0.0261556 0)
  (-0.221666 0.0104876 0)
  (-0.222135 -0.00674065 0)
  (-0.210857 -0.0246057 0)
  (-0.189361 -0.0406379 0)
  (-0.160053 -0.0524022 0)
  (-0.126425 -0.0583658 0)
  (-0.0919391 -0.0582718 0)
  (-0.0597299 -0.0527171 0)
  (-0.0331885 -0.0432514 0)
  (-0.0165582 -0.0317654 0)
  (-0.00293975 -0.0138151 0)
  (-0.00358898 0.017064 0)
  (0.0722699 0.0367012 0)
  (0.0313266 -0.0207223 0)
  (0.0392094 -0.0341398 0)
  (0.0513289 -0.0295403 0)
  (0.0608446 -0.0206605 0)
  (0.0673632 -0.0123681 0)
  (0.0700613 -0.00514082 0)
  (0.0704908 -0.00111783 0)
  (0.0703869 0.000564249 0)
  (0.0704661 0.00131792 0)
  (0.0706467 0.0017737 0)
  (0.0707784 0.00215262 0)
  (0.0708108 0.00263945 0)
  (0.0706857 0.00359354 0)
  (0.0698393 0.00597267 0)
  (0.0656903 0.0125936 0)
  (0.055266 0.018101 0)
  (0.0505937 0.0217704 0)
  (-0.0553928 0.0495155 0)
  (0.370675 0.269333 0)
  (-0.173738 0.110523 0)
  (-0.117731 0.0852454 0)
  (-0.147605 0.0629272 0)
  (-0.166073 0.0396798 0)
  (-0.176295 0.0143704 0)
  (-0.17573 -0.0133964 0)
  (-0.163616 -0.0416438 0)
  (-0.142651 -0.0660204 0)
  (-0.115853 -0.0828754 0)
  (-0.086731 -0.0903948 0)
  (-0.0579734 -0.0889113 0)
  (-0.0316092 -0.0795268 0)
  (-0.00971385 -0.064131 0)
  (0.00671361 -0.0431907 0)
  (0.0179499 -0.0176525 0)
  (0.0236597 0.0192925 0)
  (0.120651 -0.0369924 0)
  (0.0796075 -0.0447356 0)
  (0.0738792 -0.0427603 0)
  (0.0759475 -0.035292 0)
  (0.0775625 -0.0257358 0)
  (0.0786748 -0.0174442 0)
  (0.0770598 -0.0138771 0)
  (0.0724377 -0.00970699 0)
  (0.0691996 -0.00743474 0)
  (0.0677708 -0.00612772 0)
  (0.0671814 -0.0052893 0)
  (0.0669048 -0.00470327 0)
  (0.0669588 -0.00415484 0)
  (0.0678421 -0.00326049 0)
  (0.0708261 5.46427e-05 0)
  (0.0684689 0.0181462 0)
  (0.0537906 0.0307076 0)
  (0.0571749 0.0389375 0)
  (-0.0921559 0.0766733 0)
  (0.515467 0.340664 0)
  (-0.206599 0.146464 0)
  (-0.0765226 0.112315 0)
  (-0.103778 0.0816637 0)
  (-0.116476 0.0515378 0)
  (-0.122386 0.0179731 0)
  (-0.117056 -0.0202531 0)
  (-0.101842 -0.0588038 0)
  (-0.0810875 -0.0901683 0)
  (-0.0579421 -0.11032 0)
  (-0.0353508 -0.117964 0)
  (-0.0144792 -0.114677 0)
  (0.00435272 -0.101734 0)
  (0.01997 -0.0821226 0)
  (0.0335877 -0.0579647 0)
  (0.048529 -0.0306536 0)
  (0.0711917 -0.000466135 0)
  (0.103802 0.0134159 0)
  (0.10975 -0.029033 0)
  (0.0941897 -0.0388838 0)
  (0.0847917 -0.0364699 0)
  (0.0801442 -0.0308825 0)
  (0.0769865 -0.0234613 0)
  (0.0753575 -0.0143916 0)
  (0.0774133 -0.00856297 0)
  (0.0825646 -0.0065549 0)
  (0.0868 -0.00538526 0)
  (0.0895557 -0.00446512 0)
  (0.0910754 -0.00335741 0)
  (0.0907116 -0.00178929 0)
  (0.0874289 0.000440438 0)
  (0.0799792 0.00363383 0)
  (0.0653589 0.00839608 0)
  (0.0529914 0.0297718 0)
  (0.0402831 0.0472281 0)
  (0.0606975 0.0603836 0)
  (-0.135093 0.0999283 0)
  (0.639625 0.395769 0)
  (-0.247077 0.175685 0)
  (-0.036766 0.127293 0)
  (-0.0579886 0.0917281 0)
  (-0.0621078 0.0574587 0)
  (-0.0596196 0.0172709 0)
  (-0.0426599 -0.0311436 0)
  (-0.0232996 -0.0771504 0)
  (-0.00460881 -0.111285 0)
  (0.0118853 -0.13096 0)
  (0.024539 -0.135892 0)
  (0.0345012 -0.129719 0)
  (0.04219 -0.114825 0)
  (0.0484985 -0.0939077 0)
  (0.0546569 -0.0696383 0)
  (0.0625808 -0.0451903 0)
  (0.0749791 -0.0265722 0)
  (0.0858672 -0.0255136 0)
  (0.0869203 -0.0342014 0)
  (0.0798209 -0.0345767 0)
  (0.0711214 -0.0305933 0)
  (0.0643753 -0.0255774 0)
  (0.0595878 -0.0199174 0)
  (0.0570572 -0.013664 0)
  (0.057363 -0.00774047 0)
  (0.06009 -0.00489258 0)
  (0.0630606 -0.00372579 0)
  (0.0658075 -0.00264495 0)
  (0.0681736 -0.000617035 0)
  (0.0696803 0.00282654 0)
  (0.0691126 0.00772173 0)
  (0.0659509 0.01422 0)
  (0.0595037 0.0230533 0)
  (0.0518273 0.0394591 0)
  (0.0402388 0.0590529 0)
  (0.0683151 0.0804318 0)
  (-0.0349301 0.112447 0)
  (0.0474455 0.0269614 0)
  (-0.0690995 -0.0378455 0)
  (-0.286081 -0.061412 0)
  (0.728983 0.441448 0)
  (-0.286292 0.194879 0)
  (-0.00690285 0.121523 0)
  (-0.00961538 0.0895889 0)
  (-0.000681962 0.0539493 0)
  (0.0199372 0.00467462 0)
  (0.0495703 -0.0509702 0)
  (0.0692647 -0.0950364 0)
  (0.0814976 -0.124497 0)
  (0.086994 -0.139413 0)
  (0.0871538 -0.141191 0)
  (0.0837595 -0.132439 0)
  (0.0783247 -0.115977 0)
  (0.0724441 -0.0947385 0)
  (0.0675655 -0.0714853 0)
  (0.0649589 -0.0492657 0)
  (0.0653461 -0.0321675 0)
  (0.0655874 -0.0252138 0)
  (0.0617252 -0.0251294 0)
  (0.0539622 -0.0248796 0)
  (0.0454021 -0.0226114 0)
  (0.0384671 -0.0194219 0)
  (0.0336782 -0.015849 0)
  (0.0312989 -0.0120603 0)
  (0.0314188 -0.00884857 0)
  (0.0335434 -0.0076038 0)
  (0.0365682 -0.00728348 0)
  (0.040042 -0.00653192 0)
  (0.0437281 -0.00429659 0)
  (0.047447 0.000254737 0)
  (0.050267 0.00711557 0)
  (0.0514588 0.015909 0)
  (0.0513592 0.0269631 0)
  (0.0515255 0.042219 0)
  (0.0491622 0.0612996 0)
  (0.0764791 0.0860479 0)
  (0.0487735 0.105201 0)
  (0.0975002 0.0697604 0)
  (0.122239 0.0453387 0)
  (-0.138479 -0.0100387 0)
  (0.785889 0.483214 0)
  (-0.304125 0.179281 0)
  (0.0241299 0.0652537 0)
  (0.0579136 0.0549372 0)
  (0.0842207 0.0287992 0)
  (0.128458 -0.0255127 0)
  (0.157029 -0.0738342 0)
  (0.170709 -0.108081 0)
  (0.171556 -0.128202 0)
  (0.162284 -0.135602 0)
  (0.146074 -0.13215 0)
  (0.126039 -0.120304 0)
  (0.104878 -0.102847 0)
  (0.0848349 -0.0824463 0)
  (0.0674973 -0.0613104 0)
  (0.0538423 -0.0418849 0)
  (0.0440868 -0.0271147 0)
  (0.0365839 -0.0194011 0)
  (0.029033 -0.0171509 0)
  (0.0209127 -0.0165091 0)
  (0.0133613 -0.015413 0)
  (0.00746302 -0.0139667 0)
  (0.00354386 -0.0124482 0)
  (0.00173981 -0.0109971 0)
  (0.00200339 -0.0100927 0)
  (0.003837 -0.0102357 0)
  (0.00653896 -0.0107259 0)
  (0.00984515 -0.0105906 0)
  (0.0137881 -0.00890439 0)
  (0.0184958 -0.00460091 0)
  (0.0252188 0.00322165 0)
  (0.0308995 0.0128835 0)
  (0.0364505 0.0240142 0)
  (0.0437902 0.0375264 0)
  (0.0511628 0.0530905 0)
  (0.0763118 0.0732256 0)
  (0.088611 0.0805491 0)
  (0.125383 0.0523216 0)
  (0.167949 0.0428456 0)
  (-0.0320798 0.0967142 0)
  (0.893883 0.482596 0)
  (-0.0560405 0.157636 0)
  (0.119683 -0.0236569 0)
  (0.208325 -0.0598946 0)
  (0.254465 -0.0735198 0)
  (0.279245 -0.0902081 0)
  (0.287808 -0.105568 0)
  (0.279659 -0.115225 0)
  (0.257028 -0.118056 0)
  (0.224201 -0.11429 0)
  (0.185909 -0.104787 0)
  (0.146263 -0.0908042 0)
  (0.10856 -0.0742002 0)
  (0.0751102 -0.0567733 0)
  (0.0471181 -0.0397392 0)
  (0.0253623 -0.0248649 0)
  (0.00990867 -0.0144847 0)
  (-0.000794445 -0.00957139 0)
  (-0.00876664 -0.00864936 0)
  (-0.0154723 -0.00900785 0)
  (-0.0210737 -0.0093389 0)
  (-0.0253587 -0.00956196 0)
  (-0.0282915 -0.00980278 0)
  (-0.0298896 -0.0101869 0)
  (-0.0302974 -0.0109119 0)
  (-0.0299034 -0.0120355 0)
  (-0.0291082 -0.0131943 0)
  (-0.0280101 -0.0138902 0)
  (-0.0264215 -0.0136157 0)
  (-0.0238954 -0.0117609 0)
  (-0.0192708 -0.00751762 0)
  (-0.00872729 -0.000221174 0)
  (-0.000400935 0.00851947 0)
  (0.0108428 0.0171176 0)
  (0.0224349 0.0247981 0)
  (0.0437171 0.0335576 0)
  (0.0622881 0.0257703 0)
  (0.0811888 -0.00561048 0)
  (0.142773 0.0449018 0)
  (-0.455416 0.222094 0)
  (1.04622 0.426957 0)
  (0.495604 0.27874 0)
  (0.514772 0.172837 0)
  (0.549845 0.0945041 0)
  (0.529695 0.0404539 0)
  (0.48179 -0.0022839 0)
  (0.426426 -0.0334436 0)
  (0.365926 -0.0523167 0)
  (0.301142 -0.0602471 0)
  (0.23548 -0.0597833 0)
  (0.173052 -0.0536409 0)
  (0.116759 -0.0438159 0)
  (0.0688701 -0.0325042 0)
  (0.0298487 -0.0213919 0)
  (-0.00106484 -0.0113303 0)
  (-0.021966 -0.0046397 0)
  (-0.0338869 -0.00186454 0)
  (-0.0411816 -0.00150015 0)
  (-0.046404 -0.00245754 0)
  (-0.050898 -0.00381906 0)
  (-0.0548514 -0.00515406 0)
  (-0.0582529 -0.00643526 0)
  (-0.0611356 -0.00769606 0)
  (-0.0636065 -0.00897212 0)
  (-0.0658789 -0.0102857 0)
  (-0.0682863 -0.0115502 0)
  (-0.0711732 -0.012484 0)
  (-0.0748294 -0.0126739 0)
  (-0.0795793 -0.0116009 0)
  (-0.08592 -0.0085929 0)
  (-0.0945556 -0.00283336 0)
  (-0.105114 0.00620168 0)
  (-0.116073 0.0181171 0)
  (-0.133398 0.0332465 0)
  (-0.160774 0.0513832 0)
  (-0.200611 0.0704452 0)
  (-0.256853 0.0850935 0)
  (-0.320193 0.0923446 0)
  (-0.391747 0.0929429 0)
  (-0.660361 0.0874251 0)
  (-0.180002 -0.0206119 0)
  (0.100183 -0.0358565 0)
  (0.177005 -0.0552722 0)
  (0.163975 -0.0477131 0)
  (0.144644 -0.034534 0)
  (0.120467 -0.0225586 0)
  (0.0884189 -0.0123368 0)
  (0.0525535 -0.00438869 0)
  (0.0177099 0.00104018 0)
  (-0.015138 0.00458527 0)
  (-0.0386022 0.00573615 0)
  (-0.0557068 0.00568024 0)
  (-0.0666176 0.00457175 0)
  (-0.0723338 0.00237376 0)
  (-0.0755892 -0.000207213 0)
  (-0.0778953 -0.00285342 0)
  (-0.080064 -0.00551543 0)
  (-0.0825224 -0.00795332 0)
  (-0.0853945 -0.00988415 0)
  (-0.0884558 -0.0113432 0)
  (-0.0916402 -0.0124064 0)
  (-0.0950638 -0.0131213 0)
  (-0.0988929 -0.0135095 0)
  (-0.103291 -0.0134908 0)
  (-0.108345 -0.0128244 0)
  (-0.113993 -0.0111143 0)
  (-0.119985 -0.00785556 0)
  (-0.125849 -0.00249202 0)
  (-0.130855 0.00533391 0)
  (-0.134625 0.0159765 0)
  (-0.137623 0.0304447 0)
  (-0.140437 0.049199 0)
  (-0.144195 0.0711778 0)
  (-0.149529 0.0917433 0)
  (-0.152915 0.0994373 0)
  (-0.13511 0.0722685 0)
  (-0.0819748 -0.0315435 0)
  (-0.289193 -0.225584 0)
  (0.0357683 0.198073 0)
  (0.01319 0.0637732 0)
  (-0.0324767 0.0118706 0)
  (-0.0561306 0.0110751 0)
  (-0.0744247 0.0171728 0)
  (-0.0878882 0.021784 0)
  (-0.0968813 0.0255722 0)
  (-0.103647 0.0287198 0)
  (-0.108483 0.030647 0)
  (-0.11167 0.0311022 0)
  (-0.112987 0.0305965 0)
  (-0.112979 0.0303613 0)
  (-0.111875 0.0305621 0)
  (-0.110266 0.0312499 0)
  (-0.10877 0.032615 0)
  (-0.107653 0.0344868 0)
  (-0.107057 0.0363784 0)
  (-0.107028 0.0377155 0)
  (-0.107479 0.0379061 0)
  (-0.108421 0.0369414 0)
  (-0.109812 0.0354952 0)
  (-0.111629 0.0337398 0)
  (-0.113839 0.031777 0)
  (-0.116389 0.0297019 0)
  (-0.119172 0.0276252 0)
  (-0.122002 0.0256626 0)
  (-0.124586 0.0238989 0)
  (-0.126372 0.0225707 0)
  (-0.126444 0.0231153 0)
  (-0.123479 0.0268383 0)
  (-0.11586 0.0349147 0)
  (-0.102425 0.048453 0)
  (-0.0835383 0.0672384 0)
  (-0.06048 0.0862838 0)
  (-0.0363089 0.0971744 0)
  (0.00713048 0.0796746 0)
  (0.144571 0.00346232 0)
  (-0.207799 -0.138391 0)
  (-0.0928605 -0.347187 0)
  (-0.447362 -0.138573 0)
  (-0.334079 0.0445135 0)
  (-0.292188 -0.0442967 0)
  (-0.251335 -0.0509482 0)
  (-0.240042 -0.0436764 0)
  (-0.23204 -0.036751 0)
  (-0.222735 -0.0324262 0)
  (-0.211095 -0.0303234 0)
  (-0.197412 -0.0305695 0)
  (-0.182686 -0.0337118 0)
  (-0.168342 -0.0397452 0)
  (-0.155617 -0.0478767 0)
  (-0.145122 -0.0568052 0)
  (-0.136935 -0.0659827 0)
  (-0.130883 -0.0751367 0)
  (-0.126567 -0.0838577 0)
  (-0.123524 -0.0916891 0)
  (-0.121412 -0.0981428 0)
  (-0.120045 -0.10273 0)
  (-0.119392 -0.105122 0)
  (-0.119466 -0.105346 0)
  (-0.120204 -0.104133 0)
  (-0.121432 -0.101713 0)
  (-0.122983 -0.0982494 0)
  (-0.124669 -0.0938293 0)
  (-0.126237 -0.0884484 0)
  (-0.127336 -0.0819748 0)
  (-0.127511 -0.0741221 0)
  (-0.126155 -0.06468 0)
  (-0.122136 -0.0542584 0)
  (-0.113287 -0.0426845 0)
  (-0.0966487 -0.0294308 0)
  (-0.0701024 -0.0135099 0)
  (-0.0350976 0.00581241 0)
  (0.0242594 0.0306587 0)
  (0.0747896 0.0314097 0)
  (0.123398 0.00963721 0)
  (0.176819 -0.0312699 0)
  (-0.177972 -0.0995636 0)
)
;

boundaryField
{
  floor
  {
    type noSlip;
  }
  ceiling
  {
    type noSlip;
  }
  sWall
  {
    type noSlip;
  }
  nWall
  {
    type noSlip;
  }
  sideWalls
  {
    type empty;
  }
  glass1
  {
    type noSlip;
  }
  glass2
  {
    type noSlip;
  }
  sun
  {
    type noSlip;
  }
  heatsource1
  {
    type noSlip;
  }
  heatsource2
  {
    type noSlip;
  }
  Table_master
  {
    type noSlip;
  }
  Table_slave
  {
    type noSlip;
  }
  inlet
  {
    type fixedValue;
    value uniform (0.277164 -0.114805 0);
  }
  outlet
  {
    type zeroGradient;
  }
} 	// ************************************************************************* //

