/*--------------------------------*- C++ -*----------------------------------*\
  =========                 |
  \\      /  F ield         | OpenFOAM: The Open Source CFD Toolbox
   \\    /   O peration     | Website:  https://openfoam.org
    \\  /    A nd           | Version:  6
     \\/     M anipulation  |
\*---------------------------------------------------------------------------*/
FoamFile
{
    version     2.0;
    format      ascii;
    class       volScalarField;
    location    "2900";
    object      epsilon;
}
// * * * * * * * * * * * * * * * * * * * * * * * * * * * * * * * * * * * * * //

dimensions      [0 2 -3 0 0 0 0];

internalField   nonuniform List<scalar> 
459
(
0.00052216
0.000685854
0.000726608
0.000839775
0.000956049
0.00107582
0.0012049
0.00133187
0.00142178
0.00145305
0.00140952
0.00128782
0.00109971
0.000876543
0.000662721
4.83492e-05
8.52777e-05
0.000121457
0.000120827
0.00010942
9.51187e-05
7.86064e-05
6.41585e-05
5.2672e-05
4.36979e-05
3.66561e-05
3.10718e-05
2.66104e-05
2.29864e-05
1.99522e-05
1.72947e-05
1.48123e-05
1.33928e-05
1.03071e-05
0.00131555
0.00186103
0.000649926
0.00063271
0.000668892
0.000726269
0.000808381
0.000908483
0.000996565
0.00104502
0.00103469
0.000962108
0.000836917
0.000686627
0.000572266
0.000718931
0.000142817
5.79562e-05
0.000136972
0.000146156
0.000133715
0.000114339
9.61221e-05
8.69173e-05
7.04811e-05
5.59121e-05
4.43523e-05
3.54271e-05
2.85666e-05
2.32976e-05
1.92533e-05
1.62658e-05
1.44386e-05
1.36704e-05
3.53385e-05
2.39819e-05
0.00238238
0.0044938
0.000815606
0.00061366
0.000651553
0.000742993
0.000873389
0.00102453
0.00115059
0.00121739
0.0012101
0.00113325
0.000998972
0.000840092
0.000695625
0.000628536
0.000775936
0.000419903
0.000306503
0.000233821
0.000182071
0.000144265
0.000122053
0.000224443
0.000154201
0.000109747
8.08571e-05
6.14838e-05
4.80876e-05
3.85843e-05
3.17377e-05
2.68403e-05
2.03794e-05
1.7196e-05
6.74059e-05
3.8167e-05
0.00382613
0.00922296
0.00130631
0.000643402
0.000662217
0.00079894
0.00101014
0.00123443
0.00139005
0.00145439
0.00142924
0.0013291
0.00116271
0.000972433
0.000801918
0.000687955
0.000669757
0.00127234
0.000722842
0.000436599
0.000293499
0.000212235
0.000162095
0.000139137
0.000319463
0.000241131
0.00019388
0.000162166
0.000137803
0.000117749
0.000100346
8.40054e-05
6.74033e-05
3.95458e-05
2.64079e-05
0.000115845
5.16887e-05
0.00579164
0.0162693
0.00259294
0.000819696
0.000739439
0.000941625
0.00132372
0.00161793
0.0017606
0.00178431
0.00171569
0.00156844
0.00135625
0.00111056
0.000871319
0.000673303
0.000537445
0.000483345
0.000394562
0.000311647
0.000244719
0.000193177
0.000154658
0.000129248
0.000124871
0.000116056
0.00010721
9.837e-05
8.90262e-05
7.9311e-05
6.983e-05
6.09424e-05
5.2762e-05
4.1668e-05
3.21387e-05
8.15114e-05
5.81775e-05
9.33369e-05
0.000159249
0.000223811
0.00849621
0.0239745
0.00579129
0.00169134
0.00126328
0.00161267
0.00212511
0.00231767
0.00233513
0.00226093
0.00211925
0.00190321
0.00161591
0.00128669
0.000963793
0.000694646
0.000506205
0.000396647
0.000326671
0.000269348
0.000218574
0.00017659
0.00014468
0.000123492
0.000113415
0.000109044
0.000106175
0.000102472
9.65989e-05
8.75565e-05
7.6002e-05
6.44416e-05
5.40446e-05
4.47817e-05
3.93326e-05
5.83557e-05
6.00104e-05
7.22432e-05
0.000297224
0.00025848
0.0115093
0.0285053
0.0116821
0.00537135
0.00400757
0.00399856
0.00378817
0.00349653
0.00321172
0.00295146
0.00268017
0.00234973
0.00194543
0.00149898
0.0010713
0.000726148
0.000494451
0.000362462
0.000287593
0.000234109
0.00018997
0.000155573
0.000131858
0.00011865
0.000114679
0.000116263
0.000119609
0.000122716
0.000124116
0.000121717
0.000111159
9.7712e-05
8.47014e-05
7.36244e-05
6.9847e-05
8.16486e-05
0.000106666
0.000180454
0.000422564
0.000396862
0.0120906
0.0298565
0.0172024
0.0123008
0.00966583
0.00753533
0.00600611
0.00499059
0.00433084
0.00385924
0.00342239
0.00291516
0.00232268
0.00170006
0.00113011
0.000701718
0.000440661
0.000303416
0.000233436
0.000188519
0.000155542
0.000133202
0.000120764
0.000116919
0.000119915
0.000127619
0.000138453
0.000151994
0.000168309
0.00018714
0.000206879
0.000215811
0.000226847
0.00025124
0.000302309
0.000469175
0.000911197
0.00184045
0.00541663
0.00144929
0.0110932
0.0181787
0.014606
0.0111865
0.00879072
0.0072889
0.00638975
0.00585231
0.00545988
0.00501632
0.00438545
0.00353444
0.00259163
0.00170327
0.000964565
0.00051958
0.000321517
0.000227925
0.00017773
0.000146193
0.000125866
0.000114544
0.000110725
0.000112986
0.000120132
0.000131447
0.000146986
0.000167701
0.000195362
0.000232584
0.000282942
0.00035172
0.000446724
0.000592995
0.000807608
0.00109618
0.00141931
0.00168735
0.00188178
0.00112928
0.003743
0.00659607
0.00844437
0.00892388
0.00890528
0.00843209
0.00743778
0.0060369
0.00443768
0.00279143
0.0016776
0.000971769
0.000552411
0.000334961
0.000230607
0.000177545
0.000147209
0.000127934
0.000115791
0.00010942
0.000107854
0.000110192
0.000115885
0.000124818
0.000137372
0.000154525
0.000178018
0.00021071
0.00025711
0.000323266
0.000416276
0.000545238
0.000712292
0.000896848
0.00104175
0.00107453
0.000940857
0.000591542
0.00372583
0.00848564
0.00848053
0.00702904
0.00608555
0.005103
0.00402614
0.00296338
0.00201785
0.00126127
0.000768017
0.000477424
0.00031846
0.000236662
0.000194431
0.000170335
0.000154363
0.000142544
0.000133503
0.000127052
0.000123522
0.000122959
0.000125524
0.00013165
0.000142063
0.000157857
0.000180625
0.00021271
0.000257473
0.000319552
0.000405145
0.000520334
0.000665265
0.000830142
0.0009523
0.00105838
0.000808817
0.000613719
0.00267677
0.00319423
0.00360628
0.00452504
0.00401424
0.00357294
0.00323648
0.00278661
0.00224728
0.00169731
0.0011992
0.000804219
0.000533912
0.000366901
0.000267188
0.000206507
0.000168097
0.000143106
0.000127063
0.000117638
0.000113432
0.000113355
0.000116233
0.000121765
0.000129915
0.000140878
0.000155069
0.000173202
0.000196481
0.000226659
0.000264678
0.000312668
0.000373265
0.000449902
0.000546196
0.000694373
0.000740358
0.000686518
0.000557431
0.000437677
)
;

boundaryField
{
    floor
    {
        Cmu             0.09;
        kappa           0.41;
        E               9.8;
        type            epsilonWallFunction;
        value           nonuniform List<scalar> 
29
(
0.000662721
4.83492e-05
8.52777e-05
0.000121457
0.000120827
0.00010942
9.51187e-05
7.86064e-05
6.41585e-05
5.2672e-05
4.36979e-05
3.66561e-05
3.10718e-05
2.66104e-05
2.29864e-05
1.99522e-05
1.72947e-05
1.48123e-05
1.33928e-05
1.03071e-05
1.03071e-05
2.39819e-05
3.8167e-05
5.16887e-05
0.000662721
4.83492e-05
5.79562e-05
0.000419903
0.00127234
)
;
    }
    ceiling
    {
        Cmu             0.09;
        kappa           0.41;
        E               9.8;
        type            epsilonWallFunction;
        value           nonuniform List<scalar> 
43
(
0.00267677
0.00319423
0.00360628
0.00452504
0.00401424
0.00357294
0.00323648
0.00278661
0.00224728
0.00169731
0.0011992
0.000804219
0.000533912
0.000366901
0.000267188
0.000206507
0.000168097
0.000143106
0.000127063
0.000117638
0.000113432
0.000113355
0.000116233
0.000121765
0.000129915
0.000140878
0.000155069
0.000173202
0.000196481
0.000226659
0.000264678
0.000312668
0.000373265
0.000449902
0.000546196
0.000694373
0.000740358
0.000686518
0.000557431
0.000437677
0.0110932
0.0181787
0.00372583
)
;
    }
    sWall
    {
        Cmu             0.09;
        kappa           0.41;
        E               9.8;
        type            epsilonWallFunction;
        value           uniform 0.00267677;
    }
    nWall
    {
        Cmu             0.09;
        kappa           0.41;
        E               9.8;
        type            epsilonWallFunction;
        value           nonuniform List<scalar> 6(0.000223811 0.00025848 0.000396862 0.000591542 0.000613719 0.000437677);
    }
    sideWalls
    {
        type            empty;
    }
    glass1
    {
        Cmu             0.09;
        kappa           0.41;
        E               9.8;
        type            epsilonWallFunction;
        value           nonuniform List<scalar> 9(0.00052216 0.00131555 0.00238238 0.00382613 0.00579164 0.00849621 0.0115093 0.0120906 0.0110932);
    }
    glass2
    {
        Cmu             0.09;
        kappa           0.41;
        E               9.8;
        type            epsilonWallFunction;
        value           nonuniform List<scalar> 2(0.00144929 0.00112928);
    }
    sun
    {
        Cmu             0.09;
        kappa           0.41;
        E               9.8;
        type            epsilonWallFunction;
        value           nonuniform List<scalar> 
14
(
0.00052216
0.000685854
0.000726608
0.000839775
0.000956049
0.00107582
0.0012049
0.00133187
0.00142178
0.00145305
0.00140952
0.00128782
0.00109971
0.000876543
)
;
    }
    heatsource1
    {
        Cmu             0.09;
        kappa           0.41;
        E               9.8;
        type            epsilonWallFunction;
        value           nonuniform List<scalar> 3(9.33369e-05 0.000159249 0.000223811);
    }
    heatsource2
    {
        Cmu             0.09;
        kappa           0.41;
        E               9.8;
        type            epsilonWallFunction;
        value           nonuniform List<scalar> 4(0.000718931 0.000142817 0.000142817 0.000775936);
    }
    Table_master
    {
        Cmu             0.09;
        kappa           0.41;
        E               9.8;
        type            epsilonWallFunction;
        value           nonuniform List<scalar> 9(0.000224443 0.000154201 0.000109747 8.08571e-05 6.14838e-05 4.80876e-05 3.85843e-05 3.17377e-05 2.68403e-05);
    }
    Table_slave
    {
        Cmu             0.09;
        kappa           0.41;
        E               9.8;
        type            epsilonWallFunction;
        value           nonuniform List<scalar> 9(0.000319463 0.000241131 0.00019388 0.000162166 0.000137803 0.000117749 0.000100346 8.40054e-05 6.74033e-05);
    }
    inlet
    {
        type            turbulentMixingLengthDissipationRateInlet;
        mixingLength    0.01;
        phi             phi;
        k               k;
        value           uniform 0.000101881;
    }
    outlet
    {
        type            zeroGradient;
    }
}


// ************************************************************************* //
