/*--------------------------------*- C++ -*----------------------------------*=========                 |
  \      /  F ield         | OpenFOAM: The Open Source CFD Toolbox
   \    /   O peration     | Website:  https://openfoam.org
    \  /    A nd           | Version:  6
     \/     M anipulation  |
\*---------------------------------------------------------------------------*/
FoamFile
{
    version     2.0;
    format      ascii;
    class       volScalarField;
    location    "2900";
    object      PPD;
}
// * * * * * * * * * * * * * * * * * * * * * * * * * * * * * * * * * * * * * //

dimensions      [0 0 0 0 0 0 0];

internalField   nonuniform List<scalar> 
459
(
59.23572391812393
47.49502919758181
46.0945045473381
44.87065384178094
44.04968063692176
43.57848046213519
43.43355169042622
43.63479244866378
44.14590415586413
45.056563796193956
46.42232180514815
48.33455315001383
50.88581133120934
52.8943441900908
53.12850304543134
56.61382465678192
55.91228489479552
55.678298255880634
55.78229981194755
55.91228489479552
56.04224998425332
55.958871767680115
55.718003611971184
55.68485989498909
55.73250364256625
55.81096476190358
55.91326480412441
56.020047374522704
56.20168177806446
56.48758095903646
56.99872224636399
57.49608687333592
57.67753354454716
58.324916598241956
57.17304461962533
48.623950774989176
48.19106162958909
47.068514853847084
46.412131537682974
46.014044477050604
45.915147892684196
46.01973264996546
46.28845538574041
46.732901460374336
47.52000340296486
48.815868565946495
50.669344971069535
52.452146587625165
52.47815380424043
52.47815380424043
52.40013400559779
54.64834540851347
55.418246679127094
55.23617452120347
55.31513993867942
54.99205355798598
54.74913509786267
54.66650960993381
54.69576031067075
54.756942569725375
54.80000414877182
54.80861418233216
54.84709246417021
54.89391595359322
54.95231591722332
55.089664036636606
55.50804827214818
56.483963572931366
56.795584027197386
56.35487826331715
59.470616199092966
48.7774875701858
50.13322312164922
49.58928398162016
49.45051838515858
49.42945506827452
49.50667166385402
49.57780677887358
49.344785321313005
48.96639978697248
48.788044373890415
49.113983338036284
50.09761361574124
51.754987246135585
52.34812396138509
52.47815380424043
52.53017003647491
49.72109291834063
51.9625256596769
52.662146532450535
53.1537855475529
53.674832360450715
54.04713954976682
54.20243645028844
54.639230612333705
54.94440586050426
55.0827526550689
55.14125452726232
55.169250184598624
55.16647262885042
55.11423596748906
54.87603412414283
54.95034656903593
55.92999293364874
55.5063875510948
53.02144604218387
63.53663218415877
49.101625424474754
51.64435257728899
52.191183897562624
53.1374770380648
54.004645205640095
54.67779773297242
54.43372223785716
53.05676577181851
51.079642247552925
49.434433082999305
48.596838655365985
48.74297582840706
49.863605003834216
51.57084778710519
52.53017003647491
51.741346746952566
49.51719838374704
49.474316256878645
50.958058019700815
52.40155019495064
53.557950942627855
54.573881237424594
55.314236973377966
55.57609966549192
55.488677542348206
55.453884821529215
55.48384442187881
55.55444885830119
55.7329336545621
56.09595533112895
56.72719127251565
57.93925352424669
57.57958320950227
56.74857232379192
54.43279318559492
50.62221947659373
68.21745116101229
50.19091249839751
53.11590956940966
54.69093158093634
57.28310320591623
60.21947227569326
61.567024437295956
59.10511229533216
55.27152485493824
51.519093914739415
48.82418728734432
47.375706864934465
47.1870517006672
48.09392886584948
49.65999870532951
51.1214323217495
51.48122864503634
51.330567288578834
51.79665377914067
53.1134267580363
54.730615754403274
56.19642496843095
57.41726182305245
58.31676631065528
58.79034218938435
58.97354594887304
58.99773188882283
58.97437265089553
58.89106027719345
58.800573284641565
58.76037319085542
58.80801051378118
58.902873086642245
58.149405590555965
56.70434989136151
53.483608134246005
53.1312359979967
60.156749603909105
59.46631695176469
50.637515778248606
72.67392018413112
52.52153603632059
55.97580193803336
57.59998708412834
61.31127397078029
62.84078460605271
62.31147393893536
58.038175963046164
53.819944448641166
49.979817288044124
47.12650129153647
45.67520979407093
45.68152328376279
46.92792560353363
48.94897300395741
51.134105509716505
52.844717719180125
54.00608240972069
55.30846468533808
56.96506969587855
57.93661153751554
58.712814656386946
59.35830699547031
59.87369865940768
60.28530664760414
60.59357184719117
60.85015569674333
61.00396854590005
61.055216062240824
61.00396854590005
60.824510084233474
60.542221497286334
60.11953307967944
58.72226012208742
56.85828180085992
53.470363296426505
53.32246530260546
54.17783398987238
54.13497022636722
54.8126878675087
76.8515476514277
57.7258873787453
64.13831396165008
62.75743280554161
62.55412365450315
61.19364893787944
58.34992259207732
54.42699445926129
50.17830740002204
46.48537273692465
44.16611075915919
43.51381243137374
44.46261751256983
46.695316490617564
49.75897641793969
53.135782154715805
55.39223807049003
56.665761525511584
57.83299947617542
58.842017203577754
59.69341920311471
60.41379773341606
60.952709254740924
61.33686303197649
61.64368799869368
61.873503850202276
62.02656578916452
62.07755952011755
62.05206434952043
61.89902252106077
61.618136679622694
61.23448838417523
60.773210267917996
60.150036788966865
57.966328716776594
54.81465366314593
53.602744281944595
53.012598157145526
51.6134127255252
56.21832669734145
82.46144355174074
74.20367343515792
72.07226306862908
67.04869252461555
64.01060487901351
59.681575577988404
54.08541854664053
48.31896967126307
43.649354799856596
40.82004075325238
40.113680420742384
41.42800578809969
44.35014334454949
48.43371079801351
53.3194378003721
55.652296083050594
57.41830188958966
58.842017203577754
59.92518506625212
60.773210267917996
61.43918831474507
61.950049878128304
62.33232240177263
62.586734374932114
62.76460816359353
62.866169316733306
62.916927518035116
62.89155029099676
62.79000401867294
62.61215585505289
62.33232240177263
61.924537867324624
61.490332226519065
60.9783403667235
60.388104858362304
59.79645059893337
58.71825276096967
58.09804150596592
54.77983143972543
50.17619340088333
89.22248554639582
84.91363124394644
78.27531127618118
69.76471733428596
59.00315478890626
47.39246851152886
38.52709558516367
33.37175497591541
31.739088774109803
33.02027128922846
36.606538769003684
42.016696725996006
48.49014018831769
53.07646508648502
56.0942301198654
58.480126722215
60.002396007972656
61.055216062240824
61.82245657815226
62.408683332335144
62.866169316733306
62.984217334527656
62.91558446204008
62.84024525855894
62.6864307948752
62.50160774172194
62.2391317067054
61.88512043131004
61.4751954413499
60.95593879426684
60.33185507870155
59.66874335105269
59.03329431434139
58.2585076182028
57.40879100289012
56.63121945706686
56.137508652182674
55.856537499601096
55.25398564810122
53.62816050713517
98.98147342945188
68.19801394892747
31.957096392550724
8.143288788570317
5.5924036370301735
12.590814504994384
24.149450251763184
36.0036346571776
44.34316325307976
51.074899896740945
55.132121611418086
57.910710963148674
59.12360170827219
60.002563637268835
60.653867233612594
61.1307702085185
61.4177115427008
61.58649017577971
61.63354421499426
61.601086270803144
61.4916421080238
61.32308178215317
61.11175935360281
60.85018165244019
60.56340917980569
60.2583165519007
59.9492840287961
59.681977865306074
59.45166424792326
59.3075832853674
59.18877615272165
59.13189411349551
59.11248016197713
59.19602885440946
59.76493457360464
61.66989278692793
65.47667940086565
57.10899475772108
92.60644787220842
25.962675829724873
5.040090528122917
11.906631476776681
22.064237223808647
30.58396062432537
37.975647762411405
44.1196179356935
49.055911996306676
52.79048463384122
55.324909077343115
57.10734529281088
58.354530430808204
59.220707736527984
59.83061568766681
60.225837369464095
60.48628838352028
60.64743857332786
60.726170890907326
60.772669946007404
60.77678643692776
60.735988441300265
60.64991281955789
60.572868214281264
60.45649937443503
60.36205439630573
60.27721545750562
60.22697004073106
60.24315660516698
60.42812732305633
60.80187458986264
61.412956120390284
62.05297462708625
62.59391605261223
63.225250550317675
65.25064098512082
61.81774219354344
59.16655940916834
20.60041805752512
26.060432221182168
21.29686512853155
7.833664456471126
21.474535442057118
30.494429349472753
36.858274597029094
42.123413999248925
46.51253154905096
50.173696711998396
53.12901144133465
55.41060777709227
57.06723296803702
58.182076732824335
58.9174360764737
59.34206005787495
59.54413294149854
59.61841012431826
59.62763269229349
59.59988514509283
59.578750654968125
59.56487480433523
59.569667702712785
59.56382759024078
59.6006260687139
59.627193413344976
59.67754320677355
59.764562627898385
59.93574535682318
60.16392533715671
60.53970895519001
61.18335637830975
62.32539478796494
64.35252016765901
65.78264494994448
66.10562535523363
64.36025547696269
62.135571085857414
59.91517461360371
60.2084705707493
)
;

boundaryField
{
    ".*"
    {
        type            zeroGradient;
    }
}


// ************************************************************************* //
