// -*- C++ -*-
// File generated by PyFoam - sorry for the ugliness

FoamFile
{
 version 2.0;
 format ascii;
 class volScalarField;
 location "1300";
 object T;
}

dimensions [ 0 0 0 1 0 0 0 ];

internalField nonuniform List<scalar> 459
(
  302.72
  302.44
  302.425
  302.42
  302.416
  302.411
  302.406
  302.4
  302.391
  302.381
  302.37
  302.362
  302.357
  302.357
  302.365
  302.498
  302.471
  302.46
  302.463
  302.468
  302.474
  302.479
  302.484
  302.49
  302.495
  302.5
  302.505
  302.509
  302.514
  302.519
  302.524
  302.529
  302.536
  302.56
  302.905
  302.482
  302.453
  302.453
  302.455
  302.454
  302.45
  302.442
  302.425
  302.402
  302.378
  302.358
  302.345
  302.34
  302.34
  302.341
  302.342
  302.501
  302.451
  302.442
  302.445
  302.452
  302.457
  302.46
  302.463
  302.465
  302.466
  302.468
  302.47
  302.472
  302.474
  302.477
  302.482
  302.49
  302.501
  302.541
  303.099
  302.535
  302.488
  302.495
  302.507
  302.515
  302.517
  302.508
  302.481
  302.44
  302.397
  302.362
  302.34
  302.332
  302.334
  302.338
  302.342
  302.425
  302.422
  302.43
  302.443
  302.457
  302.466
  302.466
  302.467
  302.467
  302.467
  302.468
  302.468
  302.469
  302.469
  302.47
  302.474
  302.479
  302.489
  302.533
  303.295
  302.602
  302.526
  302.538
  302.564
  302.588
  302.603
  302.593
  302.55
  302.484
  302.418
  302.366
  302.334
  302.324
  302.329
  302.339
  302.349
  302.365
  302.384
  302.411
  302.437
  302.462
  302.483
  302.499
  302.512
  302.523
  302.533
  302.542
  302.549
  302.554
  302.559
  302.562
  302.563
  302.533
  302.508
  302.498
  302.535
  303.487
  302.689
  302.574
  302.581
  302.619
  302.662
  302.694
  302.678
  302.612
  302.515
  302.427
  302.361
  302.324
  302.315
  302.324
  302.343
  302.364
  302.388
  302.416
  302.448
  302.479
  302.507
  302.531
  302.55
  302.567
  302.58
  302.592
  302.6
  302.606
  302.607
  302.606
  302.601
  302.592
  302.569
  302.537
  302.513
  302.531
  302.627
  302.669
  302.676
  303.659
  302.802
  302.66
  302.646
  302.685
  302.742
  302.771
  302.728
  302.634
  302.519
  302.415
  302.341
  302.304
  302.301
  302.322
  302.354
  302.39
  302.426
  302.463
  302.501
  302.535
  302.564
  302.588
  302.606
  302.622
  302.634
  302.643
  302.65
  302.652
  302.65
  302.643
  302.633
  302.619
  302.596
  302.564
  302.534
  302.532
  302.573
  302.592
  302.632
  303.821
  302.982
  302.845
  302.819
  302.834
  302.869
  302.834
  302.734
  302.599
  302.462
  302.353
  302.288
  302.268
  302.285
  302.328
  302.382
  302.435
  302.485
  302.529
  302.568
  302.601
  302.627
  302.647
  302.662
  302.674
  302.683
  302.69
  302.693
  302.692
  302.687
  302.676
  302.661
  302.643
  302.62
  302.591
  302.561
  302.549
  302.56
  302.573
  302.607
  304.053
  303.43
  303.281
  303.199
  303.131
  303.006
  302.828
  302.628
  302.443
  302.302
  302.221
  302.199
  302.225
  302.283
  302.36
  302.44
  302.509
  302.565
  302.608
  302.641
  302.666
  302.686
  302.701
  302.711
  302.719
  302.724
  302.727
  302.727
  302.724
  302.718
  302.707
  302.691
  302.674
  302.654
  302.632
  302.61
  302.604
  302.621
  302.648
  302.805
  304.388
  304.092
  303.795
  303.484
  303.123
  302.723
  302.384
  302.143
  302.012
  301.979
  302.021
  302.113
  302.224
  302.338
  302.45
  302.547
  302.609
  302.651
  302.682
  302.705
  302.723
  302.736
  302.745
  302.751
  302.755
  302.757
  302.757
  302.756
  302.753
  302.75
  302.749
  302.749
  302.752
  302.761
  302.779
  302.808
  302.848
  302.888
  302.916
  302.987
  293.373
  295.308
  297.257
  298.713
  299.774
  300.575
  301.185
  301.643
  301.985
  302.247
  302.411
  302.522
  302.602
  302.659
  302.697
  302.724
  302.743
  302.757
  302.767
  302.775
  302.78
  302.783
  302.785
  302.787
  302.788
  302.788
  302.789
  302.791
  302.793
  302.795
  302.801
  302.811
  302.827
  302.849
  302.876
  302.901
  302.921
  302.969
  294.547
  296.994
  299.182
  300.293
  301
  301.498
  301.859
  302.131
  302.337
  302.489
  302.591
  302.66
  302.707
  302.739
  302.761
  302.776
  302.787
  302.794
  302.8
  302.803
  302.806
  302.807
  302.809
  302.81
  302.811
  302.812
  302.814
  302.815
  302.817
  302.82
  302.824
  302.831
  302.842
  302.857
  302.874
  302.893
  302.917
  302.944
  298.275
  298.198
  298.193
  300.514
  301.442
  301.843
  302.091
  302.279
  302.427
  302.542
  302.631
  302.697
  302.743
  302.775
  302.797
  302.811
  302.821
  302.828
  302.833
  302.835
  302.837
  302.838
  302.838
  302.838
  302.838
  302.838
  302.837
  302.837
  302.837
  302.837
  302.837
  302.838
  302.839
  302.842
  302.848
  302.857
  302.868
  302.875
  302.935
  303.038
)
;

boundaryField
{
  floor
  {
    type wallHeatTransfer;
    Tinf uniform 305.2;
    alphaWall uniform 0.24;
    value nonuniform List<scalar> 29
(
  302.633
  302.986
  302.903
  302.861
  302.866
  302.88
  302.899
  302.923
  302.949
  302.975
  303
  303.024
  303.047
  303.069
  303.09
  303.111
  303.133
  303.157
  303.174
  303.225
  303.225
  303.102
  303.042
  303.009
  302.633
  302.986
  302.966
  302.72
  302.593
)
;
  }
  ceiling
  {
    type wallHeatTransfer;
    Tinf uniform 303.2;
    alphaWall uniform 0.24;
    value nonuniform List<scalar> 43
(
  298.597
  298.511
  298.495
  300.667
  301.546
  301.926
  302.16
  302.339
  302.48
  302.591
  302.677
  302.742
  302.789
  302.822
  302.845
  302.861
  302.873
  302.881
  302.886
  302.889
  302.891
  302.892
  302.892
  302.892
  302.891
  302.89
  302.888
  302.887
  302.885
  302.883
  302.882
  302.881
  302.88
  302.881
  302.884
  302.891
  302.899
  302.909
  302.964
  303.054
  304.334
  304.057
  295.061
)
;
  }
  sWall
  {
    type wallHeatTransfer;
    Tinf uniform 315.2;
    alphaWall uniform 0.36;
    value uniform 299.89;
  }
  nWall
  {
    type wallHeatTransfer;
    Tinf uniform 307.2;
    alphaWall uniform 0.36;
    value nonuniform List<scalar> 6
(
  303.479
  303.417
  303.328
  303.565
  303.53
  303.624
)
;
  }
  sideWalls
  {
    type empty;
  }
  glass1
  {
    type wallHeatTransfer;
    Tinf uniform 315.2;
    alphaWall uniform 4.3;
    value nonuniform List<scalar> 9
(
  311.139
  310.453
  310.027
  309.707
  309.442
  309.203
  309.035
  309.122
  309.373
)
;
  }
  glass2
  {
    type wallHeatTransfer;
    Tinf uniform 307.2;
    alphaWall uniform 4.3;
    value nonuniform List<scalar> 2
(
  305.49
  305.624
)
;
  }
  sun
  {
    type wallHeatTransfer;
    Tinf uniform 305.2;
    alphaWall uniform 0.24;
    value nonuniform List<scalar> 14
(
  302.972
  302.702
  302.684
  302.67
  302.658
  302.647
  302.635
  302.623
  302.611
  302.6
  302.592
  302.589
  302.594
  302.608
)
;
  }
  heatsource1
  {
    type fixedGradient;
    gradient uniform 0;
  }
  heatsource2
  {
    type fixedGradient;
    gradient uniform 0;
  }
  Table_master
  {
    type zeroGradient;
  }
  Table_slave
  {
    type zeroGradient;
  }
  inlet
  {
    type fixedValue;
    value uniform 290.15;
  }
  outlet
  {
    type zeroGradient;
  }
} 	// ************************************************************************* //

