// -*- C++ -*-
// File generated by PyFoam - sorry for the ugliness

FoamFile
{
 version 2.0;
 format ascii;
 class volVectorField;
 location "1300";
 object U;
}

dimensions [ 0 1 -1 0 0 0 0 ];

internalField nonuniform List<vector> 459
(
  (0.0335077 0.088064 0)
  (-0.171289 0.0264185 0)
  (-0.196336 0.0179167 0)
  (-0.227077 0.0120447 0)
  (-0.248896 0.00562347 0)
  (-0.260883 -0.00108416 0)
  (-0.261651 -0.00809478 0)
  (-0.250428 -0.0153822 0)
  (-0.228093 -0.0222838 0)
  (-0.196514 -0.0277378 0)
  (-0.15897 -0.0309222 0)
  (-0.119079 -0.0315788 0)
  (-0.080268 -0.0301376 0)
  (-0.0475886 -0.0281394 0)
  (-0.0360821 -0.0273599 0)
  (-0.00183596 0.00847873 0)
  (-0.0270729 -0.0195766 0)
  (-0.00145112 -0.0291727 0)
  (0.0222047 -0.0215153 0)
  (0.0392111 -0.0144027 0)
  (0.0518908 -0.00916727 0)
  (0.0594173 -0.00548124 0)
  (0.0631668 -0.00355751 0)
  (0.0648552 -0.00271879 0)
  (0.0657282 -0.00230598 0)
  (0.0662749 -0.00203568 0)
  (0.0665609 -0.00181652 0)
  (0.0665234 -0.00155797 0)
  (0.0659556 -0.00108598 0)
  (0.0642877 -1.63348e-05 0)
  (0.0603062 0.00218575 0)
  (0.0526953 0.00447812 0)
  (0.0461022 0.00629056 0)
  (-0.0150875 0.0226662 0)
  (0.209817 0.179881 0)
  (-0.158418 0.0693901 0)
  (-0.156833 0.0528586 0)
  (-0.188209 0.0404871 0)
  (-0.209543 0.02664 0)
  (-0.221557 0.0113887 0)
  (-0.222825 -0.00539007 0)
  (-0.212521 -0.0229208 0)
  (-0.192078 -0.0388825 0)
  (-0.163685 -0.0508917 0)
  (-0.130705 -0.0573371 0)
  (-0.0965256 -0.0579255 0)
  (-0.0642809 -0.053289 0)
  (-0.0375118 -0.0449885 0)
  (-0.0206345 -0.0346889 0)
  (-0.00676438 -0.0165196 0)
  (-0.00610627 0.0177974 0)
  (0.0736962 0.0355404 0)
  (0.0322805 -0.0202445 0)
  (0.0393776 -0.0331803 0)
  (0.0510801 -0.0284092 0)
  (0.0601375 -0.0195857 0)
  (0.0661535 -0.011496 0)
  (0.0685629 -0.00476205 0)
  (0.06891 -0.00105052 0)
  (0.0688053 0.000523529 0)
  (0.0688804 0.00124523 0)
  (0.0690457 0.00169055 0)
  (0.0691616 0.00206637 0)
  (0.0691836 0.00254738 0)
  (0.0690587 0.00348142 0)
  (0.0682391 0.00579352 0)
  (0.0642211 0.01221 0)
  (0.0540924 0.0175345 0)
  (0.0501746 0.0209749 0)
  (-0.0565024 0.0489152 0)
  (0.370944 0.268625 0)
  (-0.173568 0.109911 0)
  (-0.117157 0.0849883 0)
  (-0.146932 0.063116 0)
  (-0.165454 0.0404424 0)
  (-0.176038 0.015828 0)
  (-0.176306 -0.0112278 0)
  (-0.165133 -0.0389951 0)
  (-0.14509 -0.0633639 0)
  (-0.118967 -0.080719 0)
  (-0.0902513 -0.0890277 0)
  (-0.0616254 -0.0885288 0)
  (-0.0352022 -0.0803185 0)
  (-0.0131064 -0.0660968 0)
  (0.00331374 -0.0465093 0)
  (0.0149976 -0.020883 0)
  (0.0215395 0.0155508 0)
  (0.119728 -0.0388431 0)
  (0.0784911 -0.0448634 0)
  (0.0726982 -0.0418946 0)
  (0.0746465 -0.0339864 0)
  (0.0760254 -0.024333 0)
  (0.0767732 -0.0160831 0)
  (0.0749702 -0.0128926 0)
  (0.0706105 -0.00908861 0)
  (0.0676104 -0.00702327 0)
  (0.0662745 -0.00584173 0)
  (0.0657068 -0.00508976 0)
  (0.0654375 -0.00456622 0)
  (0.0654919 -0.00407088 0)
  (0.0663471 -0.00323441 0)
  (0.069233 -4.71426e-05 0)
  (0.0669272 0.0175145 0)
  (0.0525769 0.0297596 0)
  (0.0569842 0.0376416 0)
  (-0.0934962 0.075634 0)
  (0.515616 0.33974 0)
  (-0.206595 0.145672 0)
  (-0.0760903 0.111891 0)
  (-0.103222 0.0818029 0)
  (-0.115873 0.0524818 0)
  (-0.122113 0.0199798 0)
  (-0.117787 -0.0171786 0)
  (-0.103407 -0.0551947 0)
  (-0.0833195 -0.0867245 0)
  (-0.0604768 -0.107703 0)
  (-0.038024 -0.116391 0)
  (-0.0170984 -0.114287 0)
  (0.00175202 -0.102765 0)
  (0.0175746 -0.0842388 0)
  (0.0310908 -0.0610298 0)
  (0.04579 -0.0341555 0)
  (0.0684758 -0.00481622 0)
  (0.100668 0.0104124 0)
  (0.107154 -0.0304154 0)
  (0.0916864 -0.0388032 0)
  (0.0824063 -0.0354821 0)
  (0.0779045 -0.0294602 0)
  (0.0748385 -0.0219084 0)
  (0.0732948 -0.0128954 0)
  (0.0750897 -0.00751358 0)
  (0.079524 -0.00583609 0)
  (0.0831464 -0.00488026 0)
  (0.0855067 -0.00412633 0)
  (0.0868209 -0.00317552 0)
  (0.0864474 -0.00176635 0)
  (0.0833757 0.000296407 0)
  (0.0763713 0.00330141 0)
  (0.0624345 0.00781669 0)
  (0.0510022 0.0287376 0)
  (0.0387301 0.0458465 0)
  (0.0606179 0.0586758 0)
  (-0.137814 0.0983785 0)
  (0.639523 0.394692 0)
  (-0.247127 0.174792 0)
  (-0.0365511 0.126703 0)
  (-0.0576696 0.0917493 0)
  (-0.0616734 0.0584428 0)
  (-0.0596844 0.0197469 0)
  (-0.0439681 -0.0271044 0)
  (-0.0250263 -0.072828 0)
  (-0.00654062 -0.107397 0)
  (0.0101733 -0.128331 0)
  (0.0229466 -0.134439 0)
  (0.0331097 -0.129495 0)
  (0.040927 -0.115836 0)
  (0.0472409 -0.0959879 0)
  (0.0532329 -0.0725385 0)
  (0.06082 -0.0484042 0)
  (0.0727349 -0.0293863 0)
  (0.0834691 -0.0269293 0)
  (0.0846075 -0.0347345 0)
  (0.0775179 -0.0343322 0)
  (0.0688597 -0.0297075 0)
  (0.0621945 -0.0242764 0)
  (0.0574545 -0.0184437 0)
  (0.0549054 -0.0122537 0)
  (0.0549745 -0.00669794 0)
  (0.0572826 -0.00412534 0)
  (0.0598502 -0.00314895 0)
  (0.0622996 -0.00227129 0)
  (0.0645006 -0.000503604 0)
  (0.066013 0.0026383 0)
  (0.0656404 0.00721977 0)
  (0.0628346 0.0133941 0)
  (0.0568674 0.0218461 0)
  (0.0497867 0.0377854 0)
  (0.038585 0.0571009 0)
  (0.0680424 0.0784377 0)
  (-0.0369668 0.110611 0)
  (0.0472218 0.0253973 0)
  (-0.0691618 -0.0377003 0)
  (-0.285538 -0.0612085 0)
  (0.728516 0.440287 0)
  (-0.286265 0.193991 0)
  (-0.00698443 0.12088 0)
  (-0.00973756 0.0895889 0)
  (-0.000801797 0.0553779 0)
  (0.0174789 0.00823335 0)
  (0.0476678 -0.0465742 0)
  (0.067607 -0.0907554 0)
  (0.0802805 -0.120959 0)
  (0.0862773 -0.136986 0)
  (0.0868454 -0.139969 0)
  (0.0837884 -0.132418 0)
  (0.0785472 -0.117064 0)
  (0.0726613 -0.0967345 0)
  (0.0675842 -0.0741371 0)
  (0.0645973 -0.0521321 0)
  (0.0644893 -0.0346913 0)
  (0.0643766 -0.0268033 0)
  (0.0603235 -0.0258189 0)
  (0.0524216 -0.0247448 0)
  (0.0437711 -0.0217937 0)
  (0.0367955 -0.0181421 0)
  (0.0319725 -0.0143424 0)
  (0.0295232 -0.0105381 0)
  (0.0294658 -0.00749991 0)
  (0.0313087 -0.0064591 0)
  (0.0340287 -0.00635216 0)
  (0.0372374 -0.00588596 0)
  (0.0407409 -0.00404454 0)
  (0.0443734 1.20748e-05 0)
  (0.0473587 0.00638667 0)
  (0.0488511 0.0147274 0)
  (0.0491175 0.0252978 0)
  (0.0497437 0.040044 0)
  (0.047822 0.0587862 0)
  (0.0762128 0.0836802 0)
  (0.048225 0.103223 0)
  (0.0973696 0.0687806 0)
  (0.122043 0.0448727 0)
  (-0.138348 -0.00996115 0)
  (0.784921 0.481996 0)
  (-0.304018 0.178557 0)
  (0.023696 0.0649213 0)
  (0.0572515 0.0554657 0)
  (0.0831766 0.0311556 0)
  (0.126181 -0.021299 0)
  (0.155104 -0.0695013 0)
  (0.169534 -0.104291 0)
  (0.171279 -0.125302 0)
  (0.162872 -0.133782 0)
  (0.147358 -0.131436 0)
  (0.127809 -0.120632 0)
  (0.106886 -0.104064 0)
  (0.0868139 -0.0843463 0)
  (0.0692271 -0.0636915 0)
  (0.0551117 -0.0443421 0)
  (0.0447618 -0.0291657 0)
  (0.0366821 -0.0206452 0)
  (0.0286604 -0.0175331 0)
  (0.0202002 -0.0161388 0)
  (0.0124407 -0.014454 0)
  (0.00645131 -0.0126089 0)
  (0.00249926 -0.010878 0)
  (0.00065881 -0.00936928 0)
  (0.000820696 -0.0085354 0)
  (0.00247271 -0.00882294 0)
  (0.00494866 -0.00951992 0)
  (0.00801673 -0.00969928 0)
  (0.011734 -0.00847112 0)
  (0.0162588 -0.00480192 0)
  (0.0227485 0.00225375 0)
  (0.0287948 0.0114064 0)
  (0.0347007 0.0220307 0)
  (0.0424469 0.0349474 0)
  (0.0504152 0.0499918 0)
  (0.0765241 0.0701314 0)
  (0.0894683 0.0780824 0)
  (0.126094 0.0514929 0)
  (0.168318 0.0421064 0)
  (-0.0326125 0.0951885 0)
  (0.892662 0.481612 0)
  (-0.0568781 0.157041 0)
  (0.118863 -0.023427 0)
  (0.205948 -0.0585792 0)
  (0.250762 -0.0708785 0)
  (0.276468 -0.0873369 0)
  (0.286378 -0.102878 0)
  (0.279683 -0.113005 0)
  (0.258409 -0.116501 0)
  (0.226714 -0.113506 0)
  (0.189238 -0.104785 0)
  (0.150078 -0.0915459 0)
  (0.112521 -0.0755337 0)
  (0.0789048 -0.0585179 0)
  (0.0505345 -0.041776 0)
  (0.0280541 -0.02677 0)
  (0.0117339 -0.015821 0)
  (0.000167569 -0.0101334 0)
  (-0.00846989 -0.00850427 0)
  (-0.0155246 -0.00832035 0)
  (-0.0212747 -0.00824431 0)
  (-0.025569 -0.00817804 0)
  (-0.0284524 -0.00824108 0)
  (-0.0300015 -0.00853962 0)
  (-0.0304041 -0.00926161 0)
  (-0.0300637 -0.0104606 0)
  (-0.0293723 -0.0117782 0)
  (-0.0284223 -0.0127387 0)
  (-0.027024 -0.0128459 0)
  (-0.0247307 -0.0115087 0)
  (-0.0204575 -0.00796938 0)
  (-0.0106991 -0.00156378 0)
  (-0.00146135 0.00654737 0)
  (0.0102409 0.0148197 0)
  (0.0226388 0.0218786 0)
  (0.0452887 0.0302953 0)
  (0.0656535 0.0239844 0)
  (0.0850838 -0.00243761 0)
  (0.145705 0.0508386 0)
  (-0.472353 0.217279 0)
  (1.04469 0.42655 0)
  (0.494791 0.27859 0)
  (0.513837 0.173039 0)
  (0.549047 0.0958134 0)
  (0.529806 0.0427371 0)
  (0.482982 0.000344717 0)
  (0.428812 -0.0310373 0)
  (0.369458 -0.0504955 0)
  (0.305666 -0.0591571 0)
  (0.240745 -0.0594152 0)
  (0.178721 -0.0539135 0)
  (0.122541 -0.0446833 0)
  (0.0743806 -0.0337667 0)
  (0.0348771 -0.0228163 0)
  (0.00343806 -0.012751 0)
  (-0.0191193 -0.00535615 0)
  (-0.0320812 -0.00205284 0)
  (-0.0401142 -0.00127192 0)
  (-0.0456778 -0.00185766 0)
  (-0.0503162 -0.00287891 0)
  (-0.0542528 -0.0039235 0)
  (-0.0575354 -0.00496419 0)
  (-0.0602534 -0.00605933 0)
  (-0.0625425 -0.00724028 0)
  (-0.0646412 -0.00853298 0)
  (-0.0668976 -0.00986059 0)
  (-0.0696589 -0.0109564 0)
  (-0.0732079 -0.0114367 0)
  (-0.0778402 -0.0108191 0)
  (-0.0839799 -0.00848222 0)
  (-0.0922098 -0.00367523 0)
  (-0.102475 0.00415181 0)
  (-0.113054 0.0146409 0)
  (-0.128643 0.0279119 0)
  (-0.153233 0.0438113 0)
  (-0.188968 0.0608544 0)
  (-0.240414 0.0746603 0)
  (-0.302037 0.0830756 0)
  (-0.379709 0.0868198 0)
  (-0.654037 0.0811627 0)
  (-0.182946 -0.0201349 0)
  (0.100983 -0.0338978 0)
  (0.177879 -0.0537917 0)
  (0.165647 -0.0467571 0)
  (0.14727 -0.0340707 0)
  (0.123971 -0.0225689 0)
  (0.0928982 -0.0127776 0)
  (0.0577189 -0.00507285 0)
  (0.0231352 0.000288149 0)
  (-0.00954727 0.00386061 0)
  (-0.0342119 0.00532109 0)
  (-0.0521614 0.00555722 0)
  (-0.0640182 0.00478284 0)
  (-0.0705311 0.00289859 0)
  (-0.0741578 0.000452434 0)
  (-0.076666 -0.00207727 0)
  (-0.0789065 -0.00463524 0)
  (-0.0812361 -0.00701441 0)
  (-0.0838531 -0.00899809 0)
  (-0.0866747 -0.0103984 0)
  (-0.0895576 -0.0113999 0)
  (-0.0926018 -0.0120637 0)
  (-0.0959896 -0.0124274 0)
  (-0.0998988 -0.0124373 0)
  (-0.10443 -0.0118909 0)
  (-0.109549 -0.0104438 0)
  (-0.115042 -0.00764219 0)
  (-0.120493 -0.00297244 0)
  (-0.125281 0.00393979 0)
  (-0.128916 0.0133491 0)
  (-0.131801 0.0261784 0)
  (-0.134207 0.0429378 0)
  (-0.13692 0.0630565 0)
  (-0.140087 0.0834449 0)
  (-0.139895 0.0958161 0)
  (-0.117956 0.0856948 0)
  (-0.0441104 0.0286424 0)
  (-0.209058 -0.186211 0)
  (0.0351265 0.198174 0)
  (0.0154501 0.064304 0)
  (-0.0306671 0.0119396 0)
  (-0.0535918 0.0109989 0)
  (-0.0712778 0.0168212 0)
  (-0.0844255 0.0210985 0)
  (-0.0935527 0.0246901 0)
  (-0.1005 0.0277784 0)
  (-0.105622 0.0297838 0)
  (-0.109119 0.0304191 0)
  (-0.110825 0.0300749 0)
  (-0.111103 0.0298505 0)
  (-0.110211 0.0300415 0)
  (-0.108667 0.0306746 0)
  (-0.107116 0.0319116 0)
  (-0.105877 0.0336957 0)
  (-0.105094 0.0356106 0)
  (-0.104807 0.0371538 0)
  (-0.10499 0.0378522 0)
  (-0.105539 0.037307 0)
  (-0.106486 0.0360003 0)
  (-0.107817 0.034329 0)
  (-0.109521 0.0323961 0)
  (-0.111567 0.0302872 0)
  (-0.11388 0.0281106 0)
  (-0.116312 0.0259819 0)
  (-0.118611 0.0239888 0)
  (-0.120296 0.0223647 0)
  (-0.120574 0.0223235 0)
  (-0.118294 0.0250407 0)
  (-0.112012 0.0315147 0)
  (-0.100527 0.0426459 0)
  (-0.0839342 0.0582969 0)
  (-0.0637294 0.0745809 0)
  (-0.0425979 0.0819552 0)
  (0.0382867 0.0340842 0)
  (0.150338 -0.0579843 0)
  (-0.0518096 -0.0626978 0)
  (-0.088886 -0.345628 0)
  (-0.445802 -0.138486 0)
  (-0.332629 0.0439105 0)
  (-0.290447 -0.0448231 0)
  (-0.249639 -0.051198 0)
  (-0.238258 -0.0437075 0)
  (-0.230314 -0.0366204 0)
  (-0.221228 -0.0321261 0)
  (-0.209927 -0.0297924 0)
  (-0.196612 -0.0296945 0)
  (-0.182179 -0.0323499 0)
  (-0.167954 -0.0378154 0)
  (-0.155145 -0.0454224 0)
  (-0.144409 -0.0539781 0)
  (-0.135881 -0.0628368 0)
  (-0.129437 -0.0717129 0)
  (-0.124735 -0.0802409 0)
  (-0.121334 -0.0879688 0)
  (-0.118881 -0.0944685 0)
  (-0.117162 -0.0993232 0)
  (-0.11609 -0.102229 0)
  (-0.115671 -0.103049 0)
  (-0.115877 -0.102143 0)
  (-0.116575 -0.100026 0)
  (-0.117611 -0.0968582 0)
  (-0.118821 -0.0927267 0)
  (-0.119987 -0.0876334 0)
  (-0.120804 -0.0814753 0)
  (-0.120869 -0.0740145 0)
  (-0.119649 -0.0650982 0)
  (-0.116185 -0.0552784 0)
  (-0.108661 -0.0444608 0)
  (-0.0945054 -0.0323078 0)
  (-0.0715555 -0.0181157 0)
  (-0.0402101 -0.00136988 0)
  (0.00421272 0.0174851 0)
  (0.045636 0.00977962 0)
  (0.107034 -0.0445789 0)
  (0.119317 -0.0860749 0)
  (-0.517004 0.0123769 0)
)
;

boundaryField
{
  floor
  {
    type noSlip;
  }
  ceiling
  {
    type noSlip;
  }
  sWall
  {
    type noSlip;
  }
  nWall
  {
    type noSlip;
  }
  sideWalls
  {
    type empty;
  }
  glass1
  {
    type noSlip;
  }
  glass2
  {
    type noSlip;
  }
  sun
  {
    type noSlip;
  }
  heatsource1
  {
    type noSlip;
  }
  heatsource2
  {
    type noSlip;
  }
  Table_master
  {
    type noSlip;
  }
  Table_slave
  {
    type noSlip;
  }
  inlet
  {
    type fixedValue;
    value uniform (0.277164 -0.114805 0);
  }
  outlet
  {
    type zeroGradient;
  }
} 	// ************************************************************************* //

