/*--------------------------------*- C++ -*----------------------------------*=========                 |
  \      /  F ield         | OpenFOAM: The Open Source CFD Toolbox
   \    /   O peration     | Website:  https://openfoam.org
    \  /    A nd           | Version:  6
     \/     M anipulation  |
\*---------------------------------------------------------------------------*/
FoamFile
{
    version     2.0;
    format      ascii;
    class       volScalarField;
    location    "2300";
    object      PMV;
}
// * * * * * * * * * * * * * * * * * * * * * * * * * * * * * * * * * * * * * //

dimensions      [0 0 0 0 0 0 0];

internalField   nonuniform List<scalar> 
459
(
1.655940207878773
1.440121048069807
1.4139330686501967
1.390481460832946
1.3750342119654702
1.366172379671826
1.3635096347331868
1.3669049957341162
1.3767031946808868
1.3940081223772978
1.419752199962319
1.4554903007270616
1.5027821064704407
1.5387813509068322
1.5435585175264341
1.6080321931158856
1.5951397645920353
1.5903644510841781
1.5917970642087225
1.5946622414319052
1.5970498389434675
1.5957342180184322
1.5912150600424089
1.590544225825925
1.5913706533128926
1.5932359902903686
1.5950841791849193
1.5970252021377198
1.6003448329101844
1.6055718552547922
1.6149246064360094
1.6242651506577994
1.6280843463177572
1.6400185197536812
1.6182400490620164
1.4611450065598832
1.4524875465507423
1.4316742960617548
1.4189642887668923
1.4120981316881447
1.4098142292149467
1.4118633418369717
1.4164795259245047
1.4248871233475982
1.439655854672419
1.4638098510588309
1.4981650298594493
1.5301820455297874
1.5311375494080883
1.5311375494080883
1.5311375494080883
1.5720912953038975
1.5855889567460133
1.5817684323285683
1.583186086619324
1.5772843035838322
1.572800646622488
1.5712740067798852
1.5722641728796223
1.573379428648397
1.5741637388903
1.5743134928504658
1.5750124815738131
1.575867195191632
1.5769382226939919
1.5799247407018948
1.5875910071264372
1.6056448085371222
1.611374452587091
1.603851865736443
1.6601918223310748
1.4641042163696267
1.4883893676428783
1.4789457154415657
1.4759414599294702
1.4756168478841118
1.4771303058907534
1.4774927195836605
1.4732369146338766
1.4662794043022485
1.4630162020531583
1.468601465992272
1.4868466474142001
1.5179076812191672
1.528271018797724
1.5306597982610073
1.5320930469428664
1.4811550810616045
1.5209824814415098
1.533588214702621
1.5425491527815447
1.5525905903351782
1.5594420807301805
1.5628361406901228
1.570912227890897
1.5765654200286094
1.5791565617464602
1.580282605582062
1.581302218988384
1.5812778986875455
1.5803415996384163
1.5760083893861794
1.5773870809180484
1.5952936755291343
1.5880269112936871
1.5422919869567424
1.7361477360579476
1.4696877662048327
1.51619653436597
1.5263799963160982
1.5443505344462498
1.5598615317401525
1.5722813980052552
1.5671877339475704
1.5408099400099182
1.5044446002981517
1.4741463363101865
1.4582253054855674
1.4615389837045942
1.4822669848513526
1.5136104929649536
1.5316152989692662
1.5156315472939739
1.4752486489744676
1.474204127848387
1.5018409197748852
1.5277665550053288
1.5494625003101088
1.567665007136504
1.5817746635643797
1.5866330346797062
1.585122543976789
1.5845927482452926
1.5852598219261618
1.5866729620764133
1.5900746743884526
1.5968265762971123
1.6084615788715995
1.6311881574055038
1.6246407920011376
1.6098387465204935
1.567878042037427
1.4988592972888992
1.8260002247358589
1.490407199185647
1.543721308063961
1.5727663973005606
1.6206007142273262
1.6751562989137208
1.6987157559161152
1.6521766677190757
1.5802581516963734
1.5116420197910925
1.4621021794944957
1.4353651834111723
1.431970528561666
1.4488765229730678
1.478260214322742
1.5048669691732306
1.5110496553933774
1.508146377234139
1.5162469921466235
1.540787253237152
1.5703445073626334
1.5972124913065169
1.620129200928738
1.6367425006281067
1.6464700800357408
1.6490904619975424
1.6492186663448951
1.648934131694627
1.6480007308420148
1.6460063143246957
1.645843034329776
1.6468008695587537
1.6486057068764102
1.6352322551445413
1.6086434841520785
1.5500292579336281
1.5439949340641057
1.6734274231582809
1.6602770389250108
1.4985532138116284
1.9154876143849124
1.5333393199429677
1.5962149074975276
1.626224644774201
1.6953761453380998
1.723520764771095
1.710862810003714
1.631729985593479
1.5535801033854366
1.4827191879644919
1.4300318087793267
1.403066981145852
1.403800641175052
1.4271515169869458
1.4646261953032886
1.5051889020222993
1.5357908916369174
1.5573006245210803
1.5810785391649418
1.6113975357659756
1.63047127997849
1.6452691600594247
1.6572015150891093
1.6662692362232148
1.6739046184764321
1.6801079607510425
1.684402366553507
1.687742336752486
1.6886965940363954
1.6872652047848187
1.6839252191307177
1.6791536242903626
1.6706607461238423
1.6453771485314095
1.6115303523645088
1.5498079687906605
1.547403622091416
1.5633001149839123
1.5625554646583866
1.5748244266775042
2.0053382114857494
1.628424335694869
1.747743905905109
1.7218338912181776
1.7183587960802256
1.6919264019003497
1.6383662815000186
1.5648796302892283
1.4859095215764262
1.417570849230805
1.374142880840452
1.3624211814964655
1.3804765906200311
1.4229017117893357
1.4796978941817196
1.5416599855239632
1.5832011423475447
1.607077244905647
1.6285617369772476
1.6471784230055155
1.6634058274029528
1.6762905627018663
1.6863109342087321
1.6939448498544745
1.6996699100043384
1.7039634907589853
1.7063487333456357
1.7077798513008426
1.7073028142872981
1.7044405438655283
1.6987157559161152
1.691559312521858
1.683448069508576
1.6717098119497773
1.6314223029260828
1.5744448776591606
1.5521637703586846
1.5414651152878027
1.516368327220241
1.6007400035352046
2.1376183014714676
1.9476125190349678
1.9029502173703512
1.8035221244450284
1.7447819590081841
1.662354270472184
1.5578490607310607
1.4512313961373937
1.3633582193363514
1.3098392781619754
1.296778689455712
1.3228514521305155
1.3791373209582756
1.4559881399013093
1.5459951115899615
1.5879767264022986
1.620923252360171
1.6471784230055155
1.6677009120215835
1.683448069508576
1.6958532393336971
1.7049175946796378
1.7120730803054494
1.7173201039827646
1.7206589710429505
1.7225668430304986
1.723520764771095
1.7230438050904253
1.7211359425974722
1.71779709206617
1.7125500941412581
1.7049175946796378
1.6968074205633827
1.6872652047848187
1.6762905627018663
1.6653147750801713
1.6454143505131855
1.6339719436707685
1.573769848133244
1.4898968888243853
2.334809582532714
2.202697236790616
2.0372335510945185
1.856428893959748
1.6475767270729451
1.4315432762907074
1.2618573128365456
1.158380831717028
1.1250169653153197
1.1534925600110277
1.228503548674288
1.3358125925090831
1.4582007812102002
1.5416476703534325
1.5965723231027356
1.6409731997894739
1.6691325686705876
1.6886965940363954
1.7030093776775508
1.7139811216598406
1.7225668430304986
1.7239383719942234
1.7230990004302753
1.7216902384182584
1.7188315543886947
1.7154080077336242
1.7105421203053415
1.7039798041791807
1.6963909010368934
1.6867843904317845
1.6752570237531
1.6631220095617465
1.6518958721528576
1.6376332733319892
1.6215204989556522
1.6077780622291606
1.5987491530244649
1.5935961508409058
1.5825149523239492
1.5527005034733679
-2.9740481995439607
-1.8362192297184035
-1.1375283022392113
-0.3899601007173237
0.17093778957388592
0.6049053409923792
0.9567334086192195
1.2184225984501769
1.3810542339285805
1.5062924269371376
1.5798581274634462
1.6309486608098773
1.6520798330225883
1.668158679710057
1.680851825737654
1.6893296642622218
1.6951768872269242
1.697847347184898
1.698695099754167
1.6980506925678864
1.695994517206173
1.6928690117895457
1.6889804005045739
1.6846701874638481
1.679435509154195
1.6733905886319602
1.6682599036940697
1.6629200872548593
1.659246903928467
1.6561470064459427
1.6544971869714982
1.6534961345655195
1.653189177708854
1.6547746861172266
1.6653209329123044
1.70067016935806
1.7718391328754812
1.6159306607438133
-2.4667691613511256
-0.9986859373845339
0.04499218223214694
0.5770983967935149
0.9011675770138364
1.1043620516056905
1.2579463300154043
1.376493848007196
1.468373726933772
1.536770790238321
1.5828910918962382
1.6152137768278299
1.6382431069879786
1.6542872171804797
1.665608275804071
1.6729597471985096
1.677811755390972
1.6803293294174222
1.681793462760553
1.6826817387101087
1.6827936350147554
1.6820826391515564
1.68103154567105
1.6796610626766002
1.6775593478949793
1.6758610281044783
1.6743362868556915
1.6734477254496483
1.6737881375912287
1.677251712580045
1.6842149788858043
1.6956147491664884
1.707627162927452
1.7178229805721192
1.7297144374630362
1.7680187763669908
1.7028506935133063
1.654284439275367
-0.8557909603226505
-0.9947132719047277
-0.8743722199984746
0.37491775181473275
0.8888086085503617
1.1044431919597106
1.2375054212816774
1.3396028473613344
1.4225343334985414
1.4898874043755659
1.5436856702728827
1.5855063195162116
1.6153822295598614
1.6358749507709998
1.6489399688917337
1.6568205218547125
1.6606185846318833
1.662065673453631
1.6618166553045228
1.6613870486281581
1.661074781083799
1.6609136809118357
1.6610876458304098
1.661559448929853
1.6618048767197733
1.6623499037191765
1.663807222040497
1.665411054426848
1.668051427768272
1.6727238058885099
1.6796299179326502
1.6910310020951527
1.712253313531048
1.7502313501261288
1.7778779874262398
1.7840744971508715
1.75145028989
1.7097082338093117
1.6682451956791595
1.6728424453034774
)
;

boundaryField
{
    ".*"
    {
        type            zeroGradient;
    }
}


// ************************************************************************* //
