/*--------------------------------*- C++ -*----------------------------------*\
  =========                 |
  \\      /  F ield         | OpenFOAM: The Open Source CFD Toolbox
   \\    /   O peration     | Website:  https://openfoam.org
    \\  /    A nd           | Version:  6
     \\/     M anipulation  |
\*---------------------------------------------------------------------------*/
FoamFile
{
    version     2.0;
    format      ascii;
    class       surfaceScalarField;
    location    "2100";
    object      phi;
}
// * * * * * * * * * * * * * * * * * * * * * * * * * * * * * * * * * * * * * //

dimensions      [1 0 -1 0 0 0 0];

internalField   nonuniform List<scalar> 
852
(
-0.00303604
0.0030958
-0.00411235
0.00107632
-0.00491334
0.000800985
-0.00552687
0.000613536
-0.00592153
0.000394657
-0.00607397
0.000152436
-0.00596344
-0.000110526
-0.00557869
-0.000384754
-0.00494356
-0.000635126
-0.00412054
-0.000823019
-0.00319826
-0.000922283
-0.00227116
-0.000927104
-0.00142194
-0.000849217
-0.000685655
-0.000736287
-0.000683612
-0.000792946
0.000796628
-0.000439841
-0.000353105
0.000237487
-0.000677328
0.000768868
-0.000531381
0.00112298
-0.000354115
0.00134378
-0.000220791
0.00146317
-0.000119398
0.00152142
-5.82492e-05
0.00155362
-3.21936e-05
0.00157286
-1.92412e-05
0.00158315
-1.0287e-05
0.00158585
-2.70558e-06
0.0015791
6.75558e-06
0.00155413
2.49709e-05
0.00148744
6.6695e-05
0.00133975
0.000147683
0.00109858
0.000241178
0.000803672
0.000294905
0.000808659
-0.00216041
0.00541676
-0.00320179
0.0021177
-0.00402098
0.00162017
-0.00462258
0.00121513
-0.00500921
0.000781287
-0.00516639
0.000309615
-0.00507069
-0.000206224
-0.00471678
-0.000738662
-0.0041405
-0.00121141
-0.0034109
-0.00155263
-0.00261347
-0.00171971
-0.00182798
-0.0017126
-0.00112578
-0.00155142
-0.000586494
-0.00127557
-0.000363819
-0.000906288
2.70097e-05
-0.00039088
2.69586e-05
0.000401006
0.000406187
0.000838829
-0.000790928
0.00110412
-0.000942618
0.00133449
-0.000761747
0.00150995
-0.00052958
0.00161462
-0.000325464
0.0016311
-0.000135871
0.00163518
-6.23325e-05
0.00164018
-3.71916e-05
0.00164435
-2.34127e-05
0.00164707
-1.30076e-05
0.00164833
-3.96189e-06
0.00164722
7.86107e-06
0.00163995
3.22447e-05
0.00159585
0.000110796
0.00140821
0.000335328
0.00108781
0.000561582
0.000692025
0.000690686
0.00151334
-0.00150751
0.00716952
-0.00240283
0.00301302
-0.00312405
0.00234139
-0.00363334
0.00172442
-0.00396332
0.00111126
-0.00409409
0.000440382
-0.00398235
-0.00031796
-0.00362459
-0.00109643
-0.00308013
-0.00175586
-0.00242695
-0.00220581
-0.00174517
-0.00240149
-0.00109287
-0.0023649
-0.000517635
-0.00212665
-5.92076e-05
-0.001734
0.000245312
-0.00121081
0.00041052
-0.000556088
0.000437478
0.00160604
-0.00118867
0.00183627
-0.00102115
0.00179621
-0.000902554
0.00178878
-0.000754321
0.00181309
-0.000553885
0.00183327
-0.000345647
0.00169755
0.00163537
0.00159834
0.00157508
0.00156223
0.00155842
0.00156643
0.00159883
0.00170978
0.00140131
0.000643801
0.00103305
0.000929848
0.000584315
0.00113942
0.00211676
-0.00104835
0.0085352
-0.00175518
0.00371985
-0.0022242
0.00281041
-0.00254715
0.00204737
-0.00274656
0.00131067
-0.00278339
0.000477211
-0.00259213
-0.000509214
-0.00219803
-0.00149053
-0.0016924
-0.0022615
-0.00114933
-0.00274888
-0.000628719
-0.0029221
-0.000156311
-0.00283731
0.000253417
-0.00253638
0.000598315
-0.0020789
0.000911644
-0.00152414
0.001285
-0.000929442
0.00213636
-0.000413888
0.0026163
-0.000469767
0.00217872
-0.000751084
0.0020367
-0.00087914
0.00191692
-0.000782775
0.00181569
-0.000653091
0.00176266
-0.000500852
0.00174226
-0.000325247
0.00188352
-0.00014142
0.00197501
-9.16422e-05
0.00204798
-7.31214e-05
0.00210139
-5.3565e-05
0.00211872
-1.74754e-05
0.00207745
4.11087e-05
0.00195285
0.000124454
0.0017126
0.000240097
0.00130028
0.00041216
0.00114957
0.000794516
0.000824133
0.00125529
0.000330651
0.0016329
0.00247239
-0.000731563
0.00964532
-0.00126581
0.0042541
-0.00134828
0.00289289
-0.00138335
0.00208243
-0.00136641
0.00129373
-0.00119443
0.000305238
-0.000838467
-0.000865179
-0.000407062
-0.00192193
1.12359e-05
-0.0026798
0.000368822
-0.00310647
0.00065374
-0.00320702
0.000870842
-0.00305442
0.00104036
-0.0027059
0.00118799
-0.00222653
0.00134602
-0.00168217
0.00156235
-0.00114576
0.00187654
-0.000728084
0.00200092
-0.00059415
0.00190038
-0.000650546
0.00171077
-0.000689522
0.00155295
-0.000624956
0.00142587
-0.000526012
0.00134169
-0.000416674
0.00131503
-0.000298588
0.0013717
-0.000198087
0.00143546
-0.000155401
0.00150202
-0.000139685
0.0015659
-0.000117437
0.00161374
-6.5319e-05
0.00162389
3.09605e-05
0.00157621
0.000172135
0.00146045
0.000355855
0.00127948
0.000593133
0.00111868
0.000955313
0.000941924
0.00143204
0.000539635
0.00203519
0.00040956
0.00260247
-0.00111837
0.00152772
-0.00158092
0.000462343
-0.0015269
-0.000635486
0.010711
-0.000995907
0.00461452
-0.000538077
0.00243506
-0.000107078
0.00165143
0.000272126
0.000914526
0.000772328
-0.000194964
0.00129749
-0.00139034
0.00168453
-0.00230898
0.00191078
-0.00290604
0.00199378
-0.00318947
0.00197606
-0.00318931
0.00188613
-0.00296448
0.00176041
-0.00258019
0.00163592
-0.00210204
0.00154396
-0.00159021
0.00150677
-0.00110857
0.00151496
-0.000736271
0.00146864
-0.000547835
0.00132521
-0.000507113
0.00112942
-0.000493734
0.000957012
-0.000452546
0.000826603
-0.000395603
0.000745468
-0.000335539
0.000722916
-0.000276036
0.000756836
-0.000232006
0.000819721
-0.000218286
0.000897954
-0.000217918
0.000985146
-0.000204629
0.00107392
-0.000154097
0.00114767
-4.2789e-05
0.00118783
0.000131977
0.00119604
0.000347652
0.00118094
0.000608234
0.00119325
0.000942997
0.00128661
0.00133869
0.00146798
0.00185382
0.0019595
0.00211095
0.00224008
0.00124715
0.00185024
0.000852183
0.000388054
-0.000664184
0.0118526
-0.000519797
0.00447013
0.000708578
0.00120668
0.00162769
0.000732317
0.00247462
6.75978e-05
0.00326041
-0.000980757
0.00374883
-0.00187876
0.00393463
-0.00249478
0.00385968
-0.0028311
0.00358555
-0.00291534
0.00318305
-0.00278681
0.00271524
-0.00249667
0.00223928
-0.00210423
0.00180248
-0.00166524
0.00143484
-0.00122258
0.00114996
-0.000823696
0.000940674
-0.000526982
0.000760607
-0.000367768
0.000572374
-0.000318879
0.000387244
-0.000308604
0.000232816
-0.000298118
0.000121403
-0.000284189
5.6617e-05
-0.000270752
4.11262e-05
-0.000260544
6.92879e-05
-0.000260167
0.000124858
-0.000273855
0.000197035
-0.000290095
0.000284315
-0.000291909
0.00039092
-0.000260701
0.000521331
-0.000173199
0.000654622
-1.31227e-06
0.000781295
0.00022098
0.000920182
0.000469347
0.0011114
0.000751781
0.00140833
0.00104176
0.00188538
0.00137677
0.0026249
0.00137143
0.00322181
0.000650237
0.00328588
0.000788116
0.00374331
0.00276177
0.00962548
0.00353801
0.00369389
0.00415185
0.000592842
0.00514114
-0.000256966
0.00606176
-0.000853028
0.00653692
-0.00145591
0.00657143
-0.00191327
0.00623481
-0.00215816
0.00561509
-0.00221138
0.00481077
-0.00211102
0.00392012
-0.00189617
0.00302613
-0.00160268
0.0021955
-0.00127361
0.00147543
-0.000945164
0.000886988
-0.000634142
0.000437809
-0.000374516
0.000121199
-0.000210371
-0.000103358
-0.000143211
-0.000280179
-0.000142056
-0.000426181
-0.000162602
-0.000541483
-0.000182814
-0.000624858
-0.000200813
-0.000677131
-0.000218478
-0.000699929
-0.000237746
-0.000698936
-0.000261159
-0.000684298
-0.000288493
-0.000661762
-0.000312629
-0.000629751
-0.000323919
-0.00057833
-0.000312121
-0.000486451
-0.000265078
-0.000323106
-0.000164657
-0.00011922
1.70949e-05
0.000108868
0.00024126
0.00039124
0.000469409
0.000734824
0.00069818
0.00119122
0.000920375
0.00167357
0.000889085
0.00180817
0.000515641
0.000974528
0.00162176
0.00501096
0.0102177
0.0139076
0.0129748
0.00152564
0.012354
0.0003638
0.0116121
-0.000111093
0.0105835
-0.000427288
0.00928611
-0.000615924
0.00783114
-0.000703203
0.00631898
-0.000699225
0.00483618
-0.00062822
0.00346134
-0.000521331
0.00224572
-0.000387058
0.00122287
-0.00025076
0.000402249
-0.000124541
-0.000209714
-2.21785e-05
-0.000612021
2.77924e-05
-0.00085197
2.95797e-05
-0.001005
9.82229e-06
-0.00112323
-2.38309e-05
-0.00122432
-6.15048e-05
-0.00131135
-9.57908e-05
-0.00138525
-0.000126904
-0.00144849
-0.000155236
-0.00150473
-0.000181511
-0.00155994
-0.000205943
-0.0016222
-0.000226235
-0.0016988
-0.000236024
-0.00179694
-0.000225788
-0.00192561
-0.000183448
-0.00209654
-9.41488e-05
-0.00231657
5.53771e-05
-0.00257216
0.000272687
-0.00290708
0.00057618
-0.00342234
0.000984669
-0.00421506
0.0014909
-0.00534006
0.00204538
-0.00690524
0.00245427
-0.00875996
0.00237037
-0.00813198
0.000993774
-0.00279528
0.00437155
0.00338784
0.00336129
0.00137405
0.00366318
-0.000412991
0.00361267
-0.000376786
0.00316582
-0.000169075
0.00248996
-2.73378e-05
0.00169644
9.42952e-05
0.00087769
0.000190537
0.000108554
0.000247809
-0.000542157
0.000263656
-0.00103487
0.000241953
-0.00137363
0.000214218
-0.00157766
0.000181862
-0.00169195
0.000142077
-0.00176426
0.000101895
-0.00182058
6.6138e-05
-0.00187822
3.382e-05
-0.00194369
3.96675e-06
-0.00201442
-2.50687e-05
-0.00208793
-5.33924e-05
-0.00216621
-7.6952e-05
-0.00225235
-9.53666e-05
-0.00234985
-0.000108443
-0.00246143
-0.000114652
-0.00258717
-0.000110288
-0.00272347
-8.94862e-05
-0.00286163
-4.52876e-05
-0.00298646
3.06809e-05
-0.00309008
0.000158999
-0.00317724
0.000359851
-0.00325896
0.000657895
-0.00334763
0.00107334
-0.00344719
0.00159047
-0.00349866
0.00209685
-0.00341102
0.00236662
-0.00298635
0.0019457
-0.00165937
-0.000333206
-0.00436978
-0.000797618
0.00426973
-0.000339682
0.00091611
-0.00100582
0.000253151
-0.00151438
0.000131778
-0.00185874
0.000175285
-0.00211693
0.000230855
-0.00230314
0.000280515
-0.00243444
0.000321839
-0.00252158
0.000334952
-0.00257003
0.000312107
-0.00259086
0.000262784
-0.00258427
0.000207633
-0.00255762
0.000155206
-0.00252482
0.000109279
-0.00249652
7.35979e-05
-0.00247792
4.75476e-05
-0.00247179
2.76836e-05
-0.00247889
1.10668e-05
-0.00249685
-7.10239e-06
-0.00252613
-2.41108e-05
-0.00256578
-3.73054e-05
-0.00261489
-4.62553e-05
-0.00267237
-5.09574e-05
-0.00273636
-5.06607e-05
-0.00280318
-4.34714e-05
-0.00286646
-2.62032e-05
-0.00291734
5.59241e-06
-0.00294074
5.40883e-05
-0.00291298
0.000131234
-0.00280709
0.000253961
-0.00258789
0.000438701
-0.00222709
0.000712543
-0.00172757
0.00109095
-0.00107307
0.00144235
-4.28689e-05
0.00133643
0.0012765
0.00062633
0.00159422
-0.000650924
-0.00268215
-0.00789096
-0.011149
-0.00682385
-0.00587944
-0.00560696
-0.00545964
-0.00527117
-0.00502879
-0.00473792
-0.00440647
-0.00406233
-0.00374113
-0.0034691
-0.00325195
-0.00308691
-0.0029675
-0.00288349
-0.00282529
-0.00278676
-0.00276473
-0.00276081
-0.00277391
-0.00280027
-0.00283569
-0.00287596
-0.00291611
-0.00294929
-0.00296543
-0.00295006
-0.00288649
-0.00274611
-0.00248336
-0.00203625
-0.00131572
-0.000217222
0.00123203
0.00257506
0.00320796
0.00256387
)
;

boundaryField
{
    floor
    {
        type            calculated;
        value           nonuniform List<scalar> 
29
(
0
0
0
0
0
0
0
0
0
0
0
0
0
0
0
0
0
0
0
0
-4.98488e-06
-1.26503e-05
-1.9106e-05
-2.498e-05
-2.0428e-06
-3.68175e-06
-1.0564e-05
-1.11914e-05
-1.01675e-05
)
;
    }
    ceiling
    {
        type            calculated;
        value           nonuniform List<scalar> 
43
(
-5.94162e-05
-5.71856e-05
-5.53965e-05
-2.82928e-05
-1.93263e-05
-1.55409e-05
-1.31813e-05
-1.1517e-05
-1.03608e-05
-9.60103e-06
-9.18817e-06
-9.09196e-06
-9.24086e-06
-9.51679e-06
-9.8291e-06
-1.01335e-05
-1.04117e-05
-1.0652e-05
-1.08409e-05
-1.09654e-05
-1.10187e-05
-1.10058e-05
-1.09422e-05
-1.08346e-05
-1.06886e-05
-1.05082e-05
-1.02964e-05
-1.00547e-05
-9.78274e-06
-9.47752e-06
-9.14574e-06
-8.78765e-06
-8.40345e-06
-7.99142e-06
-7.5473e-06
-6.90839e-06
-6.59905e-06
-6.57012e-06
-6.83358e-06
-6.48349e-06
6.39428e-06
3.95696e-06
-8.42787e-05
)
;
    }
    sWall
    {
        type            calculated;
        value           uniform -0.000279672;
    }
    nWall
    {
        type            calculated;
        value           nonuniform List<scalar> 6(-5.42206e-05 -6.47143e-05 -6.93717e-05 -8.48711e-05 -9.34085e-05 -0.000111791);
    }
    sideWalls
    {
        type            empty;
        value           nonuniform 0();
    }
    glass1
    {
        type            calculated;
        value           nonuniform List<scalar> 9(-5.97682e-05 -0.000160547 -0.000245244 -0.000317333 -0.00037856 -0.000430233 -0.000477407 -0.000534619 -0.00059858);
    }
    glass2
    {
        type            calculated;
        value           nonuniform List<scalar> 2(-0.000293125 -0.000325734);
    }
    sun
    {
        type            calculated;
        value           uniform 0;
    }
    heatsource1
    {
        type            calculated;
        value           nonuniform List<scalar> 3(2.05028e-07 2.04923e-07 2.04942e-07);
    }
    heatsource2
    {
        type            calculated;
        value           nonuniform List<scalar> 4(5.14114e-08 5.15257e-08 0 0);
    }
    Table_master
    {
        type            calculated;
        value           nonuniform List<scalar> 9(-1.53769e-07 -1.5386e-07 -1.53893e-07 -1.53914e-07 -1.53929e-07 -1.5394e-07 -1.53944e-07 -1.53937e-07 -1.53903e-07);
    }
    Table_slave
    {
        type            calculated;
        value           nonuniform List<scalar> 9(1.53627e-07 1.53648e-07 1.53625e-07 1.53607e-07 1.53603e-07 1.53606e-07 1.53626e-07 1.53676e-07 1.53767e-07);
    }
    inlet
    {
        type            calculated;
        value           uniform -0.00623375;
    }
    outlet
    {
        type            calculated;
        value           nonuniform List<scalar> 2(0.00823005 0.00331521);
    }
}


// ************************************************************************* //
