/*--------------------------------*- C++ -*----------------------------------*\
  =========                 |
  \\      /  F ield         | OpenFOAM: The Open Source CFD Toolbox
   \\    /   O peration     | Website:  https://openfoam.org
    \\  /    A nd           | Version:  6
     \\/     M anipulation  |
\*---------------------------------------------------------------------------*/
FoamFile
{
    version     2.0;
    format      ascii;
    class       volScalarField;
    location    "2600";
    object      nut;
}
// * * * * * * * * * * * * * * * * * * * * * * * * * * * * * * * * * * * * * //

dimensions      [0 2 -1 0 0 0 0];

internalField   nonuniform List<scalar> 
459
(
0.0011385
0.00124684
0.00127107
0.0013339
0.00139283
0.00144873
0.0015045
0.00155559
0.00158984
0.0016014
0.00158523
0.00153821
0.0014593
0.00135298
0.00123247
0.000515061
0.000622283
0.000700156
0.00069897
0.00067625
0.000645408
0.000605662
0.000566012
0.000529986
0.000497992
0.000469658
0.000444481
0.000422096
0.000401988
0.000383458
0.000365613
0.000347209
0.000335742
0.000307674
0.00154914
0.00387795
0.00374738
0.00437385
0.00499258
0.00560224
0.00611913
0.00652691
0.00688731
0.00717181
0.00734393
0.00736639
0.00718236
0.00664509
0.00515692
0.00126639
0.000739203
0.000547097
0.0011524
0.0016087
0.00194317
0.00212274
0.00211415
0.00168356
0.00144799
0.00128093
0.00115339
0.00105242
0.000970508
0.000899887
0.000834119
0.000770112
0.000713125
0.000662573
0.000789011
0.0004077
0.00188821
0.00530244
0.00467732
0.00584772
0.00644453
0.00689177
0.00724018
0.00753707
0.00785056
0.00816636
0.00844424
0.00863848
0.00869566
0.00852321
0.00786134
0.00594907
0.00129915
0.0010585
0.001551
0.00201235
0.00243433
0.00272266
0.00264628
0.000859232
0.000758177
0.000676919
0.000611375
0.000558021
0.000514128
0.000477741
0.000447621
0.000423297
0.000457664
0.00053019
0.000895145
0.000476001
0.00221122
0.00674462
0.00473057
0.00619234
0.00670553
0.00690206
0.0070506
0.00723747
0.00751015
0.00785184
0.00820958
0.00852736
0.0087442
0.00878187
0.00858124
0.00783571
0.00533303
0.00153195
0.00191323
0.00249242
0.00306496
0.00352153
0.0037944
0.00353992
0.000966527
0.000880012
0.0008183
0.000770995
0.000730268
0.000692967
0.000656988
0.000619188
0.000575365
0.000539319
0.000556249
0.00104986
0.000526647
0.00253889
0.00857494
0.00523876
0.00601991
0.00665985
0.00672892
0.00671822
0.00686007
0.00710954
0.00747202
0.00787727
0.00824987
0.00849952
0.00857219
0.00846186
0.00813265
0.00738627
0.00613503
0.00570886
0.00557821
0.00553556
0.00549707
0.00541621
0.00517521
0.00433422
0.00393428
0.00370161
0.00352079
0.00333068
0.00305576
0.00269311
0.00226181
0.00179038
0.00132386
0.00097814
0.00102915
0.000690788
0.000641291
0.000766311
0.000858384
0.00288482
0.0105595
0.00717317
0.00614981
0.00661403
0.00672794
0.00668877
0.00677901
0.00697428
0.00730765
0.00773895
0.00815419
0.0084245
0.00847154
0.0083073
0.00801925
0.00770138
0.00740134
0.00722994
0.00707345
0.00687235
0.00663624
0.00637671
0.00607491
0.00567227
0.0053296
0.00503758
0.00476553
0.00449287
0.0041932
0.00381089
0.00333214
0.00276072
0.00213719
0.00159483
0.00118531
0.000926961
0.000816916
0.00118237
0.000900598
0.00319196
0.0119079
0.00987679
0.00791901
0.00758383
0.0073112
0.00702265
0.00690772
0.00703203
0.00738681
0.007877
0.00834011
0.00861214
0.00860363
0.00834987
0.0080147
0.00780519
0.00777972
0.0077748
0.00762535
0.00732571
0.00694109
0.00651857
0.00608295
0.00565621
0.00528552
0.00496312
0.00467216
0.00440736
0.00417261
0.00396458
0.00363604
0.00317331
0.00261956
0.00210185
0.00163796
0.00133363
0.00127348
0.0013366
0.00103901
0.00324484
0.0103916
0.00938622
0.0086794
0.00799912
0.00732036
0.00690263
0.00685328
0.0071588
0.00771616
0.00834887
0.00884599
0.00904098
0.0088833
0.00847743
0.00807917
0.00793094
0.00796317
0.00783414
0.00746512
0.00694295
0.0063554
0.00577196
0.00524883
0.00481823
0.00447801
0.0042028
0.00397712
0.0037996
0.00367721
0.00361729
0.00358012
0.00330495
0.00293582
0.00262384
0.00249099
0.0026638
0.00324019
0.00407346
0.00159994
0.00315303
0.00371732
0.00409417
0.00418649
0.00440156
0.00487934
0.00563475
0.00661434
0.00768883
0.00868056
0.00940103
0.00969418
0.00951948
0.00899589
0.00840838
0.00805782
0.00782713
0.00754392
0.00707325
0.00643427
0.00572493
0.00504653
0.00447244
0.00402865
0.00369821
0.00344564
0.00324062
0.00306576
0.00291132
0.00277026
0.00263703
0.00251599
0.00242141
0.00235948
0.00234961
0.00237865
0.0023745
0.00227335
0.00211199
0.00147231
0.00144586
0.00368123
0.00668454
0.00865461
0.00996298
0.0107707
0.0111171
0.0110713
0.0107123
0.0101286
0.00928455
0.00842379
0.00776787
0.00729953
0.0068116
0.00620804
0.005519
0.00481891
0.00417798
0.00366045
0.00327996
0.0030091
0.00281219
0.00266194
0.00254249
0.00244667
0.00237267
0.00232231
0.00230092
0.0023063
0.00232652
0.00235807
0.00238965
0.00238986
0.00231144
0.00213822
0.00188133
0.00118686
0.00219159
0.00678911
0.00937582
0.0100654
0.0102858
0.0101505
0.00968795
0.00902011
0.00826278
0.00752265
0.00682041
0.00622657
0.00572706
0.00522027
0.00466947
0.00411774
0.00361226
0.00318328
0.00284213
0.00258064
0.00239341
0.0022631
0.00217588
0.00212336
0.00210042
0.00210271
0.00212455
0.0021612
0.00222079
0.00229835
0.00238992
0.00248773
0.00257496
0.00263714
0.00262525
0.00262687
0.00237274
0.00120151
0.0019629
0.00208202
0.00216794
0.00233835
0.00224684
0.0021613
0.0020912
0.00198942
0.00185174
0.00168633
0.00150191
0.00131462
0.00114684
0.00101206
0.000910552
0.000835641
0.000780247
0.000739483
0.000710738
0.000692697
0.000684335
0.000684177
0.000689919
0.000700701
0.000716008
0.000735618
0.000759548
0.000788089
0.000821943
0.000862052
0.000907797
0.000959658
0.00101804
0.00108342
0.00115577
0.00125202
0.00127907
0.00124728
0.00116361
0.00107347
)
;

boundaryField
{
    floor
    {
        type            nutkWallFunction;
        Cmu             0.09;
        kappa           0.41;
        E               9.8;
        value           nonuniform List<scalar> 
29
(
0.000147729
6.1639e-05
7.51287e-05
8.47468e-05
8.46013e-05
8.18085e-05
7.79991e-05
7.30574e-05
6.80881e-05
6.3536e-05
5.94612e-05
5.58254e-05
5.25716e-05
4.96591e-05
4.70263e-05
4.4585e-05
4.22197e-05
3.97647e-05
3.82264e-05
3.44316e-05
3.44316e-05
4.77752e-05
5.6641e-05
6.31114e-05
0.000147729
6.1639e-05
6.57024e-05
0.000127577
0.000181704
)
;
    }
    ceiling
    {
        type            nutkWallFunction;
        Cmu             0.09;
        kappa           0.41;
        E               9.8;
        value           nonuniform List<scalar> 
43
(
0.000229163
0.000242103
0.00025139
0.000269838
0.000260071
0.000250872
0.000243298
0.000232243
0.000217185
0.000198927
0.000178337
0.000157137
0.000137857
0.000122137
0.00011014
0.000101187
9.45062e-05
8.95543e-05
8.60431e-05
8.38309e-05
8.28031e-05
8.27836e-05
8.34895e-05
8.48131e-05
8.66881e-05
8.90832e-05
9.19958e-05
9.54553e-05
9.95399e-05
0.000104354
0.000109812
0.000115962
0.000122839
0.000130489
0.000138892
0.000149981
0.000153079
0.000149437
0.0001398
0.000129329
0.000356014
0.000414144
0.000253732
)
;
    }
    sWall
    {
        type            nutkWallFunction;
        Cmu             0.09;
        kappa           0.41;
        E               9.8;
        value           uniform 0.000229228;
    }
    nWall
    {
        type            nutkWallFunction;
        Cmu             0.09;
        kappa           0.41;
        E               9.8;
        value           nonuniform List<scalar> 6(0.000103917 0.000108958 0.000125304 0.000142496 0.000144186 0.000129337);
    }
    sideWalls
    {
        type            empty;
    }
    glass1
    {
        type            nutkWallFunction;
        Cmu             0.09;
        kappa           0.41;
        E               9.8;
        value           nonuniform List<scalar> 9(0.000137019 0.000183887 0.000221531 0.000256708 0.000291836 0.000328407 0.000360497 0.000366 0.000356478);
    }
    glass2
    {
        type            nutkWallFunction;
        Cmu             0.09;
        kappa           0.41;
        E               9.8;
        value           nonuniform List<scalar> 2(0.000189413 0.000175094);
    }
    sun
    {
        type            nutkWallFunction;
        Cmu             0.09;
        kappa           0.41;
        E               9.8;
        value           nonuniform List<scalar> 
14
(
0.000136891
0.00014938
0.000152157
0.00015933
0.000166024
0.000172344
0.000178624
0.000184353
0.000188182
0.000189472
0.000187667
0.000182405
0.000173535
0.000161499
)
;
    }
    heatsource1
    {
        type            nutkWallFunction;
        Cmu             0.09;
        kappa           0.41;
        E               9.8;
        value           nonuniform List<scalar> 3(7.74906e-05 9.2817e-05 0.000103914);
    }
    heatsource2
    {
        type            nutkWallFunction;
        Cmu             0.09;
        kappa           0.41;
        E               9.8;
        value           nonuniform List<scalar> 4(0.000151614 8.95215e-05 8.95215e-05 0.00015536);
    }
    Table_master
    {
        type            nutkWallFunction;
        Cmu             0.09;
        kappa           0.41;
        E               9.8;
        value           nonuniform List<scalar> 9(0.000104014 9.18296e-05 8.18927e-05 7.37735e-05 6.70865e-05 6.15266e-05 5.68732e-05 5.29878e-05 4.98262e-05);
    }
    Table_slave
    {
        type            nutkWallFunction;
        Cmu             0.09;
        kappa           0.41;
        E               9.8;
        value           nonuniform List<scalar> 9(0.00011677 0.000106499 9.91004e-05 9.33852e-05 8.84315e-05 8.38656e-05 7.94337e-05 7.47458e-05 6.92675e-05);
    }
    inlet
    {
        type            calculated;
        value           uniform 0.000100623;
    }
    outlet
    {
        type            calculated;
        value           nonuniform List<scalar> 2(0.0019629 0.00208202);
    }
}


// ************************************************************************* //
