/*--------------------------------*- C++ -*----------------------------------*=========                 |
  \      /  F ield         | OpenFOAM: The Open Source CFD Toolbox
   \    /   O peration     | Website:  https://openfoam.org
    \  /    A nd           | Version:  6
     \/     M anipulation  |
\*---------------------------------------------------------------------------*/
FoamFile
{
    version     2.0;
    format      ascii;
    class       volScalarField;
    location    "2600";
    object      PMV;
}
// * * * * * * * * * * * * * * * * * * * * * * * * * * * * * * * * * * * * * //

dimensions      [0 0 0 0 0 0 0];

internalField   nonuniform List<scalar> 
459
(
1.6534065842898624
1.4371272996460538
1.410995609388013
1.388023581922545
1.372528214968854
1.3636009038869927
1.3608524195860374
1.364676671960272
1.3743642408251528
1.3915504956328313
1.4171702850067203
1.4527790412970354
1.4999368960294492
1.536778118907376
1.5410775153053597
1.6050731107880278
1.5921807412497582
1.5878829887134738
1.5897931190247852
1.5921807412497582
1.5945683180742678
1.5930944604269912
1.5886629615895138
1.5880506480755467
1.5889234485260093
1.5903630492588952
1.5922407980135236
1.594201281297608
1.5975374478244517
1.6027903589643457
1.6121874843175599
1.6213060056974435
1.6246477974799391
1.6365819849248813
1.6153611930463858
1.4580817014925578
1.4500501741991
1.429183174721644
1.4164221388442182
1.4094929682210333
1.407126205894618
1.4096051660703404
1.414126007623998
1.4229442410148532
1.4376125327428682
1.4616650954182302
1.495905313854911
1.528656682719567
1.5291344269628917
1.5291344269628917
1.5277011895021508
1.5689976306426359
1.5831075372499166
1.579764615165063
1.5812497135863859
1.5753208791984434
1.5708592964009884
1.5693416556352375
1.569877553518902
1.5709998182036213
1.5717893721658804
1.5719470011897085
1.5726532274792393
1.573512352897009
1.574584251555739
1.5771049647250321
1.5847858802036934
1.602685736520323
1.6084153562948589
1.6003058139029973
1.6577514389451318
1.4609282277845814
1.4859694523954359
1.4759335984549837
1.4733707300766594
1.4729822400798995
1.4744108096898874
1.4752210292163397
1.4714191223975182
1.4644194548262361
1.4611147778365037
1.466659901014717
1.484842317564779
1.5158612567667396
1.526745689988347
1.5291344269628917
1.5300899107100754
1.4783957736089186
1.5196689129240615
1.5325126737947345
1.541537903026131
1.5511042844711154
1.5579380925075585
1.56079142426254
1.568812331276845
1.5744175464967978
1.5769597383684248
1.578035822533019
1.5785512659004985
1.5785014978716756
1.577544209557039
1.5731746771701693
1.5745416144946491
1.5925338097879904
1.584743281589893
1.5391052609598386
1.7336582826876
1.4669281424891851
1.5137954737087607
1.5238541826244578
1.5412398941275123
1.5571603580802005
1.5695172204595926
1.5650302376736642
1.5392521507577264
1.5029011933165293
1.4725586972643807
1.4570637925407377
1.4597845649051544
1.4810020709639624
1.5124743425172626
1.5300899107100754
1.5155332478469132
1.4745539327363102
1.4737945184325203
1.5011511721738255
1.5276903057910147
1.548925195083172
1.567574912272333
1.5811700563334374
1.5859823266778943
1.5843795821881255
1.5837430430000023
1.584295367206962
1.5855940817030083
1.5888744120698226
1.5955445009060518
1.6071476486191731
1.629457426081575
1.6228456942301688
1.6075688481433337
1.5650308930817405
1.4949889539369432
1.8228973166222004
1.4870440938350589
1.5408317910208629
1.5697498132030183
1.617390667510068
1.671655806014573
1.6967106531807281
1.6509588733488274
1.5798854125183197
1.5109755368096371
1.461266545421617
1.4343923562833691
1.430893424342824
1.4482568859497678
1.4772623428599962
1.5042004904171329
1.5107903932930977
1.508005385872908
1.5165808982255946
1.5407658666942443
1.5704428444619634
1.5973571155110704
1.6198106659568858
1.6363903993765863
1.6451738293707094
1.6485276105713662
1.6489796702906583
1.6485522697297772
1.6470164524842954
1.6453481119019229
1.6446075472636354
1.6454883826381628
1.647240162202956
1.6333383011751066
1.6067445998335075
1.5476052543862089
1.5411412026724245
1.6704681707341582
1.6576719411933094
1.4952780358249291
1.912956367527723
1.5299272690765198
1.5933333548512463
1.6232122588609388
1.6919397902274453
1.720561537569516
1.7105728079884837
1.6312502583454107
1.5537322371434226
1.4826202603268086
1.4297509334309382
1.4026401490530815
1.4032671824317717
1.4260928969816804
1.4641259430341866
1.5044490255825993
1.5358781547996443
1.5571783336160516
1.5810744341111027
1.611506708479115
1.6294216201454181
1.643741900692077
1.6556740774514547
1.6652188860130155
1.6728541237920245
1.6785801912347216
1.683351674873287
1.6862144597149897
1.6871687036696374
1.6862144597149897
1.6828745363628714
1.677625868324574
1.6697648291348153
1.6439076475423569
1.6095675977925068
1.5473569561212182
1.5446506910592932
1.5603451749501958
1.559554998084616
1.5719859444039428
2.0022082506740584
1.6255355277709367
1.7450172045489685
1.7189823589204967
1.715163852212166
1.6897189528036483
1.6370155759012939
1.5648861550330275
1.4862779842406215
1.4183055211840918
1.3747394119459098
1.3623885943860505
1.3798583835346048
1.4217702595884285
1.4791115844747207
1.5412590411810831
1.5826299822792895
1.6060280474393491
1.6275121145593752
1.6461284383349197
1.6618782985187348
1.6752400230763798
1.6852602069193003
1.6924168866205616
1.6981418681405855
1.7024353905174934
1.7052976360932002
1.706251699598944
1.70577466899569
1.7029124371692317
1.697664798748622
1.6905084876404537
1.681920252758153
1.6703356691228464
1.6299654682872582
1.572026517968271
1.5497866831073692
1.5389520748396228
1.5132425799207112
1.5978094248928554
2.1344570317370204
1.9444115362196674
1.9005763744826842
1.8007210199204016
1.7420698032355992
1.6611094066756813
1.5580934060876692
1.4524284627603725
1.3649583956092581
1.3107769761843169
1.2970722798573837
1.322532486719521
1.3782538010332004
1.4546084487892756
1.5446484764445265
1.5874054516329383
1.6198737801921756
1.6461284383349197
1.6661733205559435
1.681920252758153
1.6943252497895798
1.7038665236123585
1.7110218786880127
1.7157918254205557
1.7191306486892353
1.721038495796073
1.721992405135479
1.7215154516521722
1.7196076140138348
1.7162688072286045
1.7110218786880127
1.7033894815349213
1.695279417901721
1.6857373344211903
1.6747628475339862
1.6637872183222175
1.643841012340079
1.632399551589063
1.5713857031505247
1.4867695908861829
2.3316161199037895
2.200264561964644
2.034249000688309
1.854015536281473
1.6491010817756147
1.4352295042525722
1.2654090249120502
1.1612203955853317
1.1266012301890163
1.153848668968668
1.2276860406262
1.333878962503374
1.4556831305113622
1.540122105196718
1.5955233360394798
1.6394460054900286
1.6676049564523077
1.6871687036696374
1.7014812903646213
1.712452887206255
1.721038495796073
1.7232664836654699
1.7219791637607742
1.7205654021310692
1.7176783591542926
1.7142114433838613
1.7092927634279078
1.7026690489168488
1.6950126980608398
1.6853329231828702
1.6737241488176338
1.6614226191144634
1.6496590492598207
1.6353489710345661
1.6196888837528756
1.6053828923683688
1.596309137407952
1.5911488563697729
1.5800863129545386
1.550246715274455
-2.971387096625282
-1.8231565449186058
-1.1313140977950382
-0.3889855370667213
0.169050577071986
0.601688688110322
0.9522322184563353
1.2154683253347607
1.378097262778171
1.5033340226612522
1.5778543350424563
1.6289442466927972
1.6512836537052646
1.667568909950215
1.6796689370236084
1.6885522260130525
1.6939089883049325
1.6970648052066697
1.697947311712088
1.6973437047203066
1.6953025611808479
1.6921598107366997
1.6882228129112635
1.6833542630080205
1.6780225799784512
1.672357728984335
1.6666261755446732
1.661673481766344
1.6574077682399966
1.6547378951558023
1.6525379917029697
1.6514848600978997
1.6511252854727299
1.652670213849888
1.6632034480965316
1.6986351387893925
1.77052688025077
1.6141785554192025
-2.4625507306266474
-0.9963392250998891
0.04398479775974128
0.574161324422949
0.8989683243722394
1.1015528241578394
1.2550122184076704
1.374329822538302
1.466065396823028
1.5348494944916202
1.5818629452459645
1.6141322312839055
1.6371110128024209
1.653110619291527
1.6644045489582417
1.6717369807870215
1.6765767304915722
1.6795725705827118
1.6810367464578164
1.6819011559666668
1.6819777681556642
1.6812173400505688
1.6796171225907193
1.67818322349396
1.67602090937274
1.6742683964883878
1.6726970684346871
1.6717669656736371
1.6725637646982685
1.6755088754740184
1.682949497251997
1.6938427800181401
1.7057981175942385
1.7159331497863493
1.7278040744628962
1.766193414608377
1.7013972541517666
1.6521278969766537
-0.8598027709404201
-0.9986651544477864
-0.8786751599916299
0.3694460069508432
0.8833823810187152
1.1001327051207188
1.23323304857796
1.336388084928299
1.4193429117630814
1.4867307293173315
1.5416003617143537
1.583480694229067
1.6134193908443186
1.6344542053113333
1.647526768687532
1.6553793447321274
1.6591115502751606
1.6604741463110546
1.660642468746285
1.6601297528541676
1.6597405944158323
1.6594867228272778
1.6595786988952541
1.6594766358629551
1.6601659571879301
1.6606657530052826
1.661600916031124
1.6632070806489596
1.6663737509522714
1.67060915103948
1.6775916836469937
1.689573511282452
1.7109179156946637
1.7491273303746575
1.776348965370195
1.7825454052898309
1.7492177217291582
1.7073242471950034
1.6659855949904903
1.6714359011406374
)
;

boundaryField
{
    ".*"
    {
        type            zeroGradient;
    }
}


// ************************************************************************* //
