/*--------------------------------*- C++ -*----------------------------------*=========                 |
  \      /  F ield         | OpenFOAM: The Open Source CFD Toolbox
   \    /   O peration     | Website:  https://openfoam.org
    \  /    A nd           | Version:  6
     \/     M anipulation  |
\*---------------------------------------------------------------------------*/
FoamFile
{
    version     2.0;
    format      ascii;
    class       volScalarField;
    location    "2600";
    object      PPD;
}
// * * * * * * * * * * * * * * * * * * * * * * * * * * * * * * * * * * * * * //

dimensions      [0 0 0 0 0 0 0];

internalField   nonuniform List<scalar> 
459
(
59.23463204671507
47.49320712554796
46.09229686796472
44.868425910964824
44.04746495449976
43.576301941371284
43.43152208380243
43.63300554901145
44.14453435571197
45.055818836310344
46.42253385871233
48.336122378144815
50.889251129795696
52.89322396657368
53.12738277317399
56.61270804667244
55.91116687996964
55.67717984799156
55.781181574119685
55.91116687996964
56.041132204023015
55.960906398133
55.71964858952949
55.686308869873244
55.73383147502356
55.812210848214264
55.914436229303384
56.02115412165005
56.202727328825894
56.48853812135026
56.99954287278154
57.49497251466252
57.67641971632285
58.32380485129289
57.172028955564286
48.62226869609064
48.18897429392776
47.066429837798445
46.38249408051752
46.01200991584813
45.885615729778706
46.01800363740861
46.25965450652312
46.731792879703114
47.519298791233
48.81579176739878
50.670344211335006
52.45102655614812
52.477033757855956
52.477033757855956
52.39901400528719
54.64850852077864
55.41712787849031
55.23505547315854
55.315944204214716
54.99299569936536
54.74993552328443
54.667251869648574
54.696448737670565
54.75759128049733
54.80060653190731
54.80919415232209
54.84766898202539
54.894472889178566
54.95286707708086
55.09018249724338
55.50852993659288
56.482846677132706
56.79446783659208
56.35336735205552
59.46944671829804
48.77598700946155
50.131284794079136
49.58750688654074
49.44876654150597
49.42774037682606
49.50506463111604
49.548926785118624
49.34315268499426
48.964623330987635
48.786063756028234
49.08573609178147
50.07017557033993
51.75476895202997
52.34700399404192
52.477033757855956
52.529049961628544
49.720845500771524
51.961896710055825
52.66095614674408
53.15245915153729
53.673594712378254
54.0459279513483
54.20139431389332
54.63841290436085
54.943785527741696
55.08227157663413
55.140888336197264
55.16896502788586
55.16625413582347
55.114109290827564
54.876076911461844
54.95054435224042
55.93038694335233
55.506210108560964
53.01996274460401
63.5353921311351
49.100239517119654
51.64242069067649
52.18963107534008
53.13622717069376
54.00355266578197
54.67681704577965
54.432349049723555
53.027962917684455
51.0502666610427
49.40481847102979
48.56731821761369
48.714217660563136
49.86204010907328
51.57058049874567
52.529049961628544
51.73692884433962
49.512812374410224
49.47170456231886
50.95520253920235
52.39842156375576
53.55487678619428
54.57099426679001
55.311605628459354
55.57368404686959
55.48640365637191
55.45173808085897
55.4818174077349
55.55254202032487
55.73116157245733
56.094264374681615
56.72553261863392
57.93744115291453
57.57858050280048
56.7484373633905
54.432384759698124
50.6206013711249
68.18629541564049
50.189556352958036
53.11399883639164
54.68948919353541
57.282299620170164
60.21964419570475
61.565927625174446
59.10227071879342
55.24163508969555
51.489088474481875
48.794261920596284
47.3461959353393
47.15824546948044
48.09231679408987
49.65945887068857
51.1208575800431
51.47902271086849
51.32762919626005
51.79391120485197
53.11040813626675
54.72724672457888
56.19291360699059
57.41375925477645
58.31341999205004
58.78923212181981
58.9707460869415
58.99520518769738
58.97208033872273
58.888970729197155
58.79866700987846
58.75857436335941
58.80626046543309
58.90107787058153
58.14794519969465
56.70361415230101
53.48296827953194
53.13085167032462
60.1556453608803
59.46515191473485
50.636293066455494
72.6726728587948
52.52019561628114
55.97391050151593
57.598483535858016
61.31017570278475
62.83969576898569
62.30726065031805
58.03469985456794
53.81677268120062
49.94973029688061
47.09690635159563
45.646258977504
45.67969758565107
46.90061677285768
48.94876016387954
51.13436155415089
52.84421417345574
54.00453207054152
55.30639749523432
56.962537051478066
57.93549850676343
58.71170429840563
59.357199186224314
59.872593099541625
60.2842030218232
60.59246975041278
60.84905492544929
61.00286859227296
61.05411638489556
61.00286859227296
60.82340917829431
60.541119141006796
60.11773674053793
58.720679067142
56.85711774623588
53.46944157883809
53.32201611791983
54.17707996549586
54.1340263947595
54.81131577228639
76.85034333492007
57.724608627604546
64.1364064948572
62.75562239735405
62.55216950829615
61.19102173167444
58.34730655760123
54.42449868829192
50.14801385480141
46.48330420589357
44.164376326123474
43.512425586068005
44.43533978153719
46.66887855548607
49.75961896058241
53.13727006951185
55.39111923312207
56.66464503293195
57.83188612083005
58.840907331963564
59.69231283469795
60.41269473655095
60.951609026693255
61.33576490747637
61.642591632397405
61.872408846459614
62.025471714672115
62.076465759083675
62.05097043152523
61.89792767103502
61.617040164254384
61.23338968848841
60.77210909408329
60.14850421389699
57.96500397782037
54.8135262116873
53.601810515727635
53.01161969767295
51.612354588172266
56.217528155709864
82.43674066282807
74.17852280639006
72.07073037924607
67.04701744716962
63.98067610997323
59.65080242543934
54.05439031727493
48.3172139874274
43.64785851126275
40.81883961574385
40.11282639337328
41.42767177925057
44.350357826166906
48.434811077171105
53.32189547977859
55.651177633802966
57.41718731058185
58.840907331963564
59.92407974160805
60.77210909408329
61.4380907688741
61.94895533692522
62.33123023582433
62.58564385033173
62.76351881542321
62.865080650955136
62.91583919622027
62.890461796970285
62.78891484040814
62.61106549713118
62.33123023582433
61.923443171478254
61.48923497275269
60.97724027565266
60.38700173478093
59.795344689743196
58.71707096810198
58.097035759365085
54.77861454520918
50.174670885951414
89.2038262439079
84.91271899465647
78.27418817802142
69.76341298085848
59.001773963766794
47.391185907201866
38.498152666219106
33.370907716263105
31.738567888426047
33.0201335935993
36.606994950411156
42.01803323154568
48.49280100199955
53.0753448218836
56.09311243672013
58.479015518230554
60.001291039662334
61.05411638489556
61.82136126837165
62.4075916539376
62.865080650955136
62.98361161875532
62.91513470759787
62.83990146486938
62.68616971989735
62.50138951064491
62.23892064431939
61.88490841690769
61.474939784138996
60.95551551951369
60.33106526948203
59.66771263468502
59.03196025744226
58.25696480059483
57.40714457731814
56.629556850000725
56.13588013556594
55.854991775200986
55.25257771795756
53.62687331736826
98.98126989051457
68.19954016853819
31.958522349209588
8.151587576345577
5.592325791861427
12.590844783854536
24.150313340641915
36.00261221401856
44.342069492446214
51.07378129673834
55.131002432157565
57.90959785054809
59.11983649437708
59.99934723607686
60.65104048459544
61.12839838600088
61.415775032851215
61.58490059744609
61.63217171337725
61.59984087941534
61.490475321572056
61.32197693487731
61.11071421784193
60.84919402774669
60.56246685150961
60.25746189669711
59.94850553605607
59.681255902042146
59.45087974477512
59.306600530246016
59.187668610928846
59.13071828863922
59.1112712512879
59.19481809677039
59.76384023359091
61.66900757362739
65.47736369249819
57.10776059640712
92.60674100466701
25.963575586018365
5.040051946240467
11.906121517107266
22.06278547188822
30.581869211579217
37.9732682451476
44.142714166205906
49.05359437647923
52.78819827253168
55.3493437724322
57.105243042636324
58.35247928516584
59.2186304554625
59.82865653655006
60.22401794841027
60.48465455360334
60.64585686566594
60.724604106958495
60.77108238301743
60.77520129892035
60.7343151470622
60.648253363210635
60.571110826334085
60.45473515370876
60.360375846133174
60.275742637710565
60.225633536504574
60.26856151092891
60.42716966967361
60.827438438022924
61.4122254027087
62.052223739284486
62.593176363983915
63.22476742546597
65.25047445655406
61.81686443860351
59.165493056835324
20.601141371275716
26.061272717897126
21.297592654969506
7.841349691929651
21.473587556374227
30.516921451078176
36.88273846670425
42.148932649626474
46.538851476048
50.172563582700676
53.15586117890557
55.437450444381184
57.06650126214384
58.20845373799768
58.91658835349393
59.34127039265908
59.54291625332034
59.61650200201943
59.62559083782431
59.597905064898846
59.576889459451856
59.563178911163405
59.568146228559975
59.56263414320515
59.59986012116261
59.62684808619359
59.67733837586541
59.76403628302355
59.93489068833659
60.16324325639421
60.53927952177844
61.18321619130924
62.32568137642504
64.35330619056008
65.78157925335975
66.10456261113586
64.35807281316487
62.133777041360595
59.913953697148
60.20779520693953
)
;

boundaryField
{
    ".*"
    {
        type            zeroGradient;
    }
}


// ************************************************************************* //
