/*--------------------------------*- C++ -*----------------------------------*\
  =========                 |
  \\      /  F ield         | OpenFOAM: The Open Source CFD Toolbox
   \\    /   O peration     | Website:  https://openfoam.org
    \\  /    A nd           | Version:  6
     \\/     M anipulation  |
\*---------------------------------------------------------------------------*/
FoamFile
{
    version     2.0;
    format      ascii;
    class       volScalarField;
    location    "100";
    object      nut;
}
// * * * * * * * * * * * * * * * * * * * * * * * * * * * * * * * * * * * * * //

dimensions      [0 2 -1 0 0 0 0];

internalField   nonuniform List<scalar> 
459
(
0.000959748
0.00103077
0.001035
0.00108002
0.00112147
0.00115965
0.00119618
0.00123316
0.00126414
0.00128226
0.00128169
0.00125762
0.00120865
0.00114034
0.00106643
0.000475683
0.000567158
0.000619739
0.000612411
0.000596399
0.000576426
0.000549796
0.000522311
0.000496965
0.000474295
0.000454151
0.000436241
0.000420182
0.000405738
0.000392392
0.000379369
0.000365593
0.000356684
0.000331125
0.00136633
0.00288915
0.00263352
0.00306417
0.00343334
0.0038161
0.00417848
0.00446401
0.00471354
0.00493394
0.00508925
0.00513923
0.00502546
0.0046069
0.00342934
0.001065
0.000649557
0.000516043
0.000964135
0.00129439
0.00156359
0.00173179
0.00176598
0.00145558
0.00128627
0.00116132
0.00106197
0.000981166
0.000915188
0.000862358
0.000812368
0.000757912
0.000705735
0.000659383
0.000782632
0.000419442
0.00171407
0.00398563
0.00303808
0.00403261
0.00438697
0.00463136
0.00482013
0.00497653
0.00514687
0.00533465
0.00551314
0.00565976
0.00575288
0.00574343
0.00549763
0.00449744
0.00100583
0.000959019
0.0013262
0.00166769
0.00201989
0.00230674
0.0022951
0.00074611
0.000671221
0.000609419
0.000558326
0.00051569
0.000479771
0.000449383
0.000424154
0.000404483
0.000447232
0.000532208
0.000906222
0.000485461
0.00205767
0.0053893
0.00294078
0.00420862
0.0045566
0.00462035
0.00464161
0.00470518
0.00483557
0.00501094
0.00519493
0.00537581
0.00555621
0.00571437
0.00580007
0.00557398
0.00444122
0.00122358
0.00159012
0.00208375
0.00258553
0.00302593
0.00333273
0.00312792
0.000824926
0.000767115
0.000730764
0.000704935
0.000681534
0.000654772
0.000627959
0.000598
0.000561019
0.00053557
0.00056212
0.00108138
0.000538217
0.00240914
0.00724776
0.00335573
0.00391371
0.00448809
0.00448038
0.00439898
0.00442822
0.00458096
0.00477452
0.004958
0.0051345
0.00531921
0.0054774
0.00555363
0.00549586
0.00517542
0.00438586
0.00417578
0.00421809
0.00434912
0.00448893
0.00457403
0.00447389
0.00383509
0.00361034
0.00350636
0.00341651
0.00329549
0.00311473
0.00278852
0.00236883
0.00189245
0.00140913
0.00103377
0.00107211
0.000701553
0.000664195
0.00079324
0.000886882
0.00277776
0.00926294
0.00511804
0.00371461
0.00416082
0.00435719
0.00436582
0.00433183
0.00453532
0.00473351
0.00490157
0.00506007
0.00522567
0.00536716
0.00541063
0.00533741
0.00522495
0.00514348
0.00518643
0.00523802
0.00524886
0.00522733
0.00516739
0.00504997
0.00485524
0.00470842
0.00457699
0.00443031
0.00425756
0.00405543
0.00377669
0.00337635
0.00285732
0.00225077
0.00168771
0.00123422
0.000947709
0.000837176
0.00121715
0.000930728
0.00312974
0.0107943
0.0080299
0.00525133
0.00440145
0.00429986
0.00450485
0.00459513
0.00471393
0.00484032
0.00496318
0.00509744
0.00526299
0.00541816
0.00546182
0.00537673
0.0053144
0.00539642
0.00549764
0.00549006
0.00538983
0.00524725
0.00508832
0.00492928
0.00477945
0.00464264
0.00449867
0.00433846
0.00416804
0.00400212
0.00384905
0.00361297
0.00321647
0.00269051
0.00217169
0.00168244
0.00135304
0.00129326
0.00136553
0.00107917
0.00320575
0.0100566
0.00868373
0.00760551
0.00654774
0.00583755
0.00549377
0.00517507
0.00503404
0.00503812
0.00509311
0.00520144
0.00538763
0.00558493
0.00564706
0.00555857
0.005489
0.0054736
0.00534727
0.00516112
0.00495548
0.0047562
0.0045732
0.00440809
0.00425765
0.00411209
0.00396218
0.00381367
0.00368342
0.00359114
0.00355268
0.00354871
0.00336595
0.00299401
0.00266429
0.00251638
0.00269201
0.00334976
0.00428475
0.00165327
0.00312932
0.00374093
0.00425429
0.00448617
0.0046084
0.00461058
0.00461658
0.00473355
0.00495385
0.0051299
0.00520091
0.00532777
0.00558603
0.00585214
0.00590964
0.00577769
0.00546907
0.0050907
0.00475909
0.00449579
0.00428308
0.00410366
0.0039421
0.00378583
0.00362602
0.00345787
0.00328296
0.00310948
0.00294667
0.0027998
0.0026691
0.00255147
0.0024617
0.0024024
0.00239654
0.00243489
0.00244187
0.00234415
0.00217429
0.00151437
0.0020608
0.00400447
0.00473608
0.0051595
0.00554898
0.00587702
0.00593785
0.00569763
0.00538399
0.00548716
0.00584135
0.00615906
0.00611317
0.00563759
0.00502045
0.00451781
0.00418872
0.00397237
0.00381198
0.00367404
0.0035388
0.00339514
0.00323884
0.00307181
0.00290149
0.00273932
0.0025981
0.00249033
0.00242711
0.00240912
0.00241722
0.00244166
0.00246877
0.00246452
0.00237749
0.00218531
0.00190055
0.0012224
0.0023604
0.00494791
0.00588309
0.00596497
0.00607244
0.00616492
0.00559773
0.0047947
0.00427723
0.00482071
0.00508056
0.00512378
0.00491454
0.00449127
0.00405141
0.00373761
0.00353382
0.00339286
0.00328028
0.00317586
0.00306949
0.0029585
0.00284589
0.00273862
0.00264506
0.00257176
0.00252063
0.00248696
0.00248543
0.00251774
0.00257744
0.00265286
0.00272415
0.0027756
0.00276401
0.00275352
0.00239798
0.00123823
0.00203783
0.00215366
0.00224346
0.00236119
0.00222309
0.00207525
0.00188693
0.00160824
0.00129889
0.00113199
0.00105921
0.0010549
0.00104566
0.00100144
0.000950563
0.000908355
0.000880891
0.000862513
0.000850324
0.000841819
0.000835644
0.000831385
0.000829276
0.000829958
0.000834246
0.000842949
0.000856786
0.000876448
0.000902841
0.000937512
0.000979574
0.00102921
0.00108651
0.00115163
0.00122409
0.00131969
0.00135053
0.00131897
0.00122995
0.00113467
)
;

boundaryField
{
    floor
    {
        type            nutkWallFunction;
        Cmu             0.09;
        kappa           0.41;
        E               9.8;
        value           nonuniform List<scalar> 
29
(
0.000128501
5.66116e-05
6.82439e-05
7.48231e-05
7.39096e-05
7.191e-05
6.94068e-05
6.60531e-05
6.25711e-05
5.93401e-05
5.64329e-05
5.38351e-05
5.15133e-05
4.94211e-05
4.75308e-05
4.57765e-05
4.40571e-05
4.223e-05
4.1043e-05
3.7617e-05
3.76169e-05
4.93212e-05
5.78625e-05
6.45834e-05
0.000128501
5.66116e-05
6.17753e-05
0.000115893
0.000146716
)
;
    }
    ceiling
    {
        type            nutkWallFunction;
        Cmu             0.09;
        kappa           0.41;
        E               9.8;
        value           nonuniform List<scalar> 
43
(
0.000237314
0.00024985
0.000259521
0.00027226
0.000257489
0.000241544
0.000221048
0.000190272
0.000155308
0.000136084
0.000127613
0.000127115
0.000126056
0.000120878
0.000114881
0.000109877
0.000106606
0.000104411
0.000102952
0.000101932
0.000101191
0.000100679
0.000100426
0.000100508
0.000101023
0.000102067
0.000103726
0.000106077
0.000109224
0.000113342
0.000118314
0.000124149
0.000130847
0.00013841
0.000146768
0.000157712
0.000161223
0.00015763
0.000147441
0.000136444
0.000353537
0.000416541
0.000271916
)
;
    }
    sWall
    {
        type            nutkWallFunction;
        Cmu             0.09;
        kappa           0.41;
        E               9.8;
        value           uniform 0.000237381;
    }
    nWall
    {
        type            nutkWallFunction;
        Cmu             0.09;
        kappa           0.41;
        E               9.8;
        value           nonuniform List<scalar> 6(0.000107322 0.000112538 0.000129996 0.000146586 0.000148404 0.000136454);
    }
    sideWalls
    {
        type            empty;
    }
    glass1
    {
        type            nutkWallFunction;
        Cmu             0.09;
        kappa           0.41;
        E               9.8;
        value           nonuniform List<scalar> 9(0.000116039 0.00016322 0.000202299 0.00024006 0.000277986 0.000317138 0.000354018 0.000361936 0.000354004);
    }
    glass2
    {
        type            nutkWallFunction;
        Cmu             0.09;
        kappa           0.41;
        E               9.8;
        value           nonuniform List<scalar> 2(0.000195355 0.000179826);
    }
    sun
    {
        type            nutkWallFunction;
        Cmu             0.09;
        kappa           0.41;
        E               9.8;
        value           nonuniform List<scalar> 
14
(
0.000115972
0.000124329
0.000124824
0.000130086
0.000134907
0.000139332
0.000143549
0.000147805
0.000151358
0.000153432
0.000153367
0.000150611
0.000144987
0.000137097
)
;
    }
    heatsource1
    {
        type            nutkWallFunction;
        Cmu             0.09;
        kappa           0.41;
        E               9.8;
        value           nonuniform List<scalar> 3(8.03252e-05 9.60781e-05 0.000107318);
    }
    heatsource2
    {
        type            nutkWallFunction;
        Cmu             0.09;
        kappa           0.41;
        E               9.8;
        value           nonuniform List<scalar> 4(0.000128332 7.85181e-05 7.85181e-05 0.000121398);
    }
    Table_master
    {
        type            nutkWallFunction;
        Cmu             0.09;
        kappa           0.41;
        E               9.8;
        value           nonuniform List<scalar> 9(9.03697e-05 8.11983e-05 7.35369e-05 6.71321e-05 6.17327e-05 5.71414e-05 5.32239e-05 4.99467e-05 4.7375e-05);
    }
    Table_slave
    {
        type            nutkWallFunction;
        Cmu             0.09;
        kappa           0.41;
        E               9.8;
        value           nonuniform List<scalar> 9(9.99045e-05 9.29207e-05 8.84975e-05 8.53388e-05 8.24651e-05 7.91648e-05 7.58418e-05 7.21087e-05 6.7469e-05);
    }
    inlet
    {
        type            calculated;
        value           uniform 0.000100623;
    }
    outlet
    {
        type            calculated;
        value           nonuniform List<scalar> 2(0.00203783 0.00215366);
    }
}


// ************************************************************************* //
