/*--------------------------------*- C++ -*----------------------------------*=========                 |
  \      /  F ield         | OpenFOAM: The Open Source CFD Toolbox
   \    /   O peration     | Website:  https://openfoam.org
    \  /    A nd           | Version:  6
     \/     M anipulation  |
\*---------------------------------------------------------------------------*/
FoamFile
{
    version     2.0;
    format      ascii;
    class       volScalarField;
    location    "100";
    object      PPD;
}
// * * * * * * * * * * * * * * * * * * * * * * * * * * * * * * * * * * * * * //

dimensions      [0 0 0 0 0 0 0];

internalField   nonuniform List<scalar> 
459
(
56.07557597394462
44.558123535191285
43.69426287242463
42.59324174548161
41.80522897054207
41.30963994206248
41.0480438506511
41.135359534246334
41.47261029944668
42.13661523156706
43.178713238703544
44.66053478377102
46.72399599837892
49.11772946290034
49.85911444030949
50.19230319917153
49.83003218498062
49.752443676112456
49.649015819840876
49.571462894215244
49.46808346123843
48.67474842873206
48.283396418664275
48.088382196680854
47.976285147348015
47.89462732913249
47.84273666472171
47.86068080155093
47.92785921863436
48.15969947708241
48.66238942524997
49.59731213834627
49.83003218498062
50.52896219467352
54.21210816838866
45.40246967093754
45.68623836607756
44.678226179235814
44.11453147460254
43.81653093162484
43.695072214729066
43.8395509861874
44.13591487606775
44.57779899401846
45.16040362627059
46.03607732433693
47.33135918559457
48.90452247721157
49.88176609628998
49.13230075951609
47.43299813653897
46.712081717742784
50.11464794376012
50.01112912530622
49.933506505044335
49.17801596851085
48.55025509237781
48.08647990422717
47.825004834885114
47.61527912745529
47.42683036795541
47.21804330206505
47.059925724354265
46.9572389732813
46.91692987084669
47.00910113975954
47.41565271737774
48.506622623880396
48.87422526208299
48.42607237182893
57.1273859747132
45.16586939163312
47.473761332662924
46.93675659505694
46.8701848665364
46.9186491998946
47.06947410913819
47.30853338097275
47.532944139143304
47.53528238375924
47.37065920165857
47.31367288084544
47.673598653853176
48.64106877840846
50.37565582815234
50.088765913080465
49.1581189957379
45.08463401086417
48.2139637163656
48.973839872327545
49.03120838461724
48.99197017213857
48.80663485855768
48.42534226460729
48.454420103953716
48.42273074284747
48.20749616771299
47.99098633566133
47.78997562035008
47.6529454105919
47.49093149907083
47.1892449532535
47.207074383416234
48.14979659974462
47.526881420334085
44.63782038786564
61.71840928047434
45.100508384416486
48.74500472659695
48.97749054713587
49.79999503479321
50.5728588009076
51.203670685037316
51.69241833422099
51.717918071038156
50.82130581539816
49.4226311162609
48.12654228378096
47.49421558150217
47.86943964591179
49.368751370012035
50.76217100351822
50.580777028183604
49.16037177038256
48.17058273203119
49.160618148595745
49.961393340822674
50.33839367226265
50.62618963184405
50.84946344199716
50.70255394962353
49.967175822517326
49.32511808526392
48.85197366783501
48.488082196642
48.281361724233214
48.31915174363012
48.73812145580172
49.80785079992871
49.545615394468584
48.77240858925049
46.17622036630384
42.07313314196837
66.76988748745853
45.8959747508197
49.739427467208124
50.712009290274025
52.58809288940118
54.50571258130231
56.134576430269355
57.09515080973191
56.18357224241929
53.58454155747748
50.67486498049728
48.28409442055631
47.00329841183611
47.08225092724231
48.290920394470234
50.03640645664726
51.10566415396202
50.79877002759535
50.30392151951061
50.95433654054813
51.87769365183848
52.007522059989455
52.059459015697065
52.08542865054604
52.11139904292016
52.11139904292016
52.11139904292016
51.90828957619586
51.4610259734785
51.056259718897266
50.75340792953628
50.626593187452755
50.62126584897568
49.84575485668382
48.43320058220633
44.95756905590068
44.6022850242721
52.16334205879885
51.15469966946559
41.66945151576952
71.42504954265915
47.90637702012232
51.84616650608675
52.37731088002005
54.72567980886961
57.979544326891755
59.45107641153202
61.043207623809
58.233923340318704
54.27055067938484
50.63951896835132
47.844827335174195
46.432643075356474
46.49905480309817
47.7777934344828
49.760513622437344
51.61026997553471
52.033490148729406
52.293212129628266
52.527019880879585
52.734888733222455
52.8648232749356
52.96877898634712
53.02075930460544
53.04675004273213
53.07274115288489
53.09873262458818
53.07274115288489
52.96877898634712
52.81284804918594
52.527019880879585
52.13737018245781
51.67001242915492
50.26457694434993
48.3447055321604
44.74853610817215
44.799547566584344
45.71728851954873
45.6075716715108
46.23671580684704
75.43188279210942
52.91510860154971
59.60438311952471
56.45248555929888
56.3866972488938
58.64044986384138
60.83835497040349
59.12471827080108
56.46951842480526
52.95803244083827
49.38907714302591
46.756796169808084
45.65702966204661
46.18190861901083
48.03375952173237
50.6722570220557
52.42309906422157
52.83883543418416
53.176709104151655
53.43664988393454
53.64461845662893
53.77460338973482
53.878592794035505
53.93058774972835
53.98258276167349
54.00858026229475
54.00858026229475
53.95658525395613
53.82659797918878
53.61862181852897
53.254688460096105
52.78686113039565
52.241262004964454
51.592146913136936
49.386686161665075
46.02480891619542
44.919502660503184
44.3620402030162
42.825662255844314
47.95262107628617
81.25344348539534
70.9595366755337
69.07752965065411
62.751347396479204
60.12682754187864
59.15027566998638
58.38341256424711
56.818584257739964
53.83242893265472
50.015871543877026
46.64594381687779
44.79672541953624
44.766459234304875
46.51754525611933
49.53616742318377
52.47505826898514
53.254688460096105
53.80060065100707
54.11256998213741
54.37253859466946
54.528512467460835
54.65848447015078
54.73646435970986
54.788449395232355
54.814441413768236
54.814441413768236
54.788449395232355
54.71047136403894
54.55450737033441
54.346542305812044
54.034577745241286
53.566628975223686
53.02075930460544
52.42309906422157
51.82576809811868
51.28077345452717
50.424137775891126
49.951197139181794
46.24529943804809
41.1413167568552
88.29365774898385
83.3884388237577
76.12578592459246
68.93588665885949
63.72390991759521
60.312697350799354
57.66484255044407
53.661398451774595
48.431245526152686
44.16148102747542
42.04766165693492
42.31057369008887
44.67574594048452
48.74903641443151
52.11139904292016
53.46264531526469
54.26855254870349
54.73646435970986
55.02228764279226
55.23018287890019
55.36010091772168
55.43804496987754
55.508114656761215
55.196549900570865
54.899448916106934
54.54520139285749
54.16801256139515
53.707314704217765
53.17539048042652
52.568580526221474
51.85822571980967
51.09866759986214
50.37325970925955
49.54811562580566
48.62334260831419
47.89925239841085
47.42279888380525
47.14927088904726
46.549203541759724
44.82474577143137
93.64767141426086
9.49403267297977
7.545157116002613
16.127642364429462
21.741484380819486
25.31876717759934
29.036270257359945
33.215510825824964
37.965438430421266
43.3507118261274
49.00323847624545
51.721927404259716
53.64461845662893
54.684478063969244
55.28215172297873
55.59726829752758
55.28724983424201
54.9833186132127
54.69600097939381
54.377618005844624
54.06266288640012
53.71222202527213
53.34073979728014
52.941306630648086
52.515872721990775
52.07739851428316
51.649175212830194
51.28854354815546
51.02032005789146
50.852739147272004
50.738274347895285
50.671877568651226
50.63669582833353
50.752038845302955
51.37986073531188
53.46770115128743
57.722604519603806
48.23582090579696
72.43435721483607
7.538546147342103
9.96044745513332
18.926162409968185
25.447059454625546
30.27421589305051
36.08752672166496
41.83914021692949
46.61292996266326
50.26997198809042
52.6309499928609
52.97981581190429
53.2647143940515
53.5404228268745
53.73760248637992
53.75349797444379
53.68089671112816
53.501573882111174
53.311627039217996
53.072653406022305
52.87108601058865
52.65801424732884
52.4605605269358
52.304650749185875
52.13727003964561
52.0139386547236
51.91481472783727
51.86212113288647
51.90985724189565
52.10603674458672
52.536282812498385
53.194888158677536
53.90408991439261
54.455203762747175
55.08195109864042
57.270538475909994
53.89640543425629
50.624807256548884
23.075090475220748
27.674136422215852
23.175005130833895
5.639844059077646
13.053760721945892
20.73305996700637
26.78118932895849
31.972216100312636
39.663182432231
44.789130757702395
46.907198806014534
48.19100280999299
49.259301276749014
49.8559607775099
50.07240948318258
50.11365569372417
50.09368152727535
50.02514009448735
49.9569967699192
49.90473193227249
49.80823861497149
49.72457187526507
49.65998623834819
49.62298879314823
49.59536868227918
49.642713622812195
49.722087010143824
49.87885738457411
50.11124995458398
50.512610476177166
51.062928302947455
51.89258714261225
53.247756918300276
55.62269755094891
58.16059012349798
58.574083387347194
56.731058349445654
53.73249986313326
51.164322313175084
51.85834529004405
)
;

boundaryField
{
    ".*"
    {
        type            zeroGradient;
    }
}


// ************************************************************************* //
