/*--------------------------------*- C++ -*----------------------------------*\
  =========                 |
  \\      /  F ield         | OpenFOAM: The Open Source CFD Toolbox
   \\    /   O peration     | Website:  https://openfoam.org
    \\  /    A nd           | Version:  6
     \\/     M anipulation  |
\*---------------------------------------------------------------------------*/
FoamFile
{
    version     2.0;
    format      ascii;
    class       volScalarField;
    location    "3000";
    object      epsilon;
}
// * * * * * * * * * * * * * * * * * * * * * * * * * * * * * * * * * * * * * //

dimensions      [0 2 -3 0 0 0 0];

internalField   nonuniform List<scalar> 
459
(
0.000523119
0.000687564
0.000728695
0.000842292
0.000959033
0.00107938
0.00120926
0.00133651
0.00142621
0.0014567
0.001412
0.00128898
0.00109957
0.000875203
0.000660101
4.83874e-05
8.52237e-05
0.000121476
0.00012089
0.00010937
9.49528e-05
7.83534e-05
6.38657e-05
5.23735e-05
4.34121e-05
3.63905e-05
3.08306e-05
2.63912e-05
2.27905e-05
1.97793e-05
1.71437e-05
1.46824e-05
1.32703e-05
1.02074e-05
0.00131764
0.00186128
0.000651148
0.000633698
0.000669853
0.00072752
0.000810317
0.000911008
0.000999325
0.00104749
0.00103654
0.000963314
0.000837644
0.000687153
0.000572015
0.000716524
0.000143631
5.78363e-05
0.000137052
0.000146529
0.000134044
0.000114515
9.61011e-05
8.67698e-05
7.02222e-05
5.56056e-05
4.40425e-05
3.51367e-05
2.83066e-05
2.30687e-05
1.90571e-05
1.60995e-05
1.42964e-05
1.35449e-05
3.50722e-05
2.3777e-05
0.00238464
0.00448905
0.000816556
0.000614353
0.000652307
0.00074434
0.000875828
0.00102785
0.00115408
0.00122028
0.00121216
0.00113458
0.000999718
0.000840986
0.000696304
0.000629447
0.000776988
0.000416965
0.0003062
0.00023419
0.000182466
0.00014446
0.00012199
0.000224308
0.000154027
0.000109546
8.06478e-05
6.12793e-05
4.78967e-05
3.84092e-05
3.15788e-05
2.66946e-05
2.02544e-05
1.70709e-05
6.68785e-05
3.78403e-05
0.0038272
0.00920867
0.00130701
0.000644308
0.000663242
0.000800999
0.0010142
0.0012393
0.00139459
0.00145765
0.00143134
0.00133036
0.0011631
0.000973318
0.000803308
0.000689898
0.000671839
0.00127406
0.000724722
0.000438177
0.000294503
0.000212698
0.000162116
0.000138809
0.000319174
0.000240831
0.00019342
0.000161516
0.000137009
0.000116957
9.95764e-05
8.33004e-05
6.68154e-05
3.92421e-05
2.61947e-05
0.000114796
5.12457e-05
0.00578995
0.0162425
0.0025931
0.000821586
0.000741766
0.000946248
0.00133149
0.00162491
0.00176606
0.0017878
0.0017176
0.00156925
0.00135652
0.00111108
0.000872459
0.000675022
0.000539472
0.000485136
0.000395926
0.000312552
0.000245142
0.000193146
0.000154265
0.000128599
0.000124042
0.000115168
0.000106285
9.74152e-05
8.80699e-05
7.84262e-05
6.90354e-05
6.02461e-05
5.21662e-05
4.12278e-05
3.1807e-05
8.07386e-05
5.7594e-05
9.27129e-05
0.000158146
0.00022208
0.00849019
0.0239383
0.00579147
0.00169587
0.00127025
0.00163044
0.00213701
0.00232594
0.00234077
0.00226459
0.00212104
0.00190351
0.00161546
0.00128648
0.000964466
0.000696192
0.000508159
0.000398451
0.000327944
0.000270009
0.000218674
0.000176255
0.000144064
0.000122721
0.00011255
0.000108122
0.000105202
0.000101438
9.55087e-05
8.64356e-05
7.4972e-05
6.35429e-05
5.32779e-05
4.41566e-05
3.88019e-05
5.77072e-05
5.93253e-05
7.15442e-05
0.00029549
0.000256244
0.0114966
0.028465
0.0116823
0.0053833
0.0040239
0.00401497
0.003799
0.00350356
0.00321663
0.00295474
0.00268159
0.00234932
0.00194404
0.00149794
0.00107155
0.000727632
0.000496417
0.00036415
0.000288572
0.000234389
0.000189743
0.000155055
0.000131208
0.000117956
0.000113958
0.0001155
0.000118757
0.000121717
0.000122925
0.000120314
0.00010949
9.61684e-05
8.32584e-05
7.22885e-05
6.85598e-05
8.02747e-05
0.000104982
0.000177859
0.000418054
0.000392155
0.0120763
0.0297964
0.0171834
0.0122919
0.00966329
0.00753139
0.00600427
0.00499147
0.00433353
0.00386199
0.00342349
0.00291394
0.00232022
0.00169821
0.00112996
0.000702974
0.000442114
0.000304334
0.000233612
0.000188248
0.000155059
0.000132657
0.000120231
0.000116412
0.0001194
0.000127034
0.000137712
0.000151013
0.000167007
0.000185441
0.000204711
0.000213011
0.000223697
0.000247529
0.000297723
0.000462712
0.000900742
0.00182371
0.00538354
0.00144206
0.0110804
0.0181535
0.0145848
0.0111746
0.0087851
0.00728931
0.00639525
0.00586093
0.00546892
0.00502281
0.0043873
0.00353161
0.00258738
0.0017002
0.000962387
0.000519082
0.000321153
0.000227392
0.00017702
0.000145429
0.000125146
0.000113903
0.000110151
0.000112426
0.000119512
0.000130679
0.00014598
0.000166369
0.000193605
0.000230281
0.000279941
0.000347926
0.000442271
0.00058774
0.000801427
0.0010891
0.00141167
0.00167967
0.00187378
0.0011242
0.00372382
0.0065725
0.00843113
0.00891824
0.00890463
0.00843325
0.00743816
0.00603327
0.00442974
0.00277664
0.00167022
0.00096711
0.00054925
0.000332821
0.000228773
0.000175829
0.00014558
0.00012641
0.00011435
0.000108016
0.00010644
0.000108714
0.000114289
0.000123061
0.00013542
0.000152349
0.000175584
0.000207965
0.000253969
0.000319582
0.000411926
0.000540132
0.000706445
0.000890469
0.00103531
0.0010686
0.000936804
0.000588174
0.00371925
0.00849808
0.00848502
0.00702955
0.00607922
0.00509097
0.00401128
0.00294856
0.00200422
0.00124954
0.000759825
0.00047161
0.000314038
0.000232904
0.000190884
0.000166829
0.00015089
0.000139166
0.000130294
0.000124015
0.000120652
0.000120234
0.000122912
0.000129104
0.000139529
0.000155263
0.00017789
0.000209736
0.00025414
0.000315727
0.000400689
0.000515147
0.000659361
0.000823512
0.000945494
0.00105232
0.000805094
0.00061029
0.00267335
0.00319035
0.00360189
0.00451974
0.00400579
0.00356378
0.00322408
0.00277059
0.00222867
0.00167766
0.00118041
0.000787883
0.000520928
0.000356943
0.000259514
0.000200491
0.000163296
0.000139212
0.000123857
0.000114925
0.000111032
0.00011119
0.00011421
0.000119812
0.000127972
0.00013889
0.000152986
0.000170978
0.000194063
0.000223944
0.000261604
0.000309161
0.000369251
0.000445323
0.000541048
0.000688078
0.000734432
0.000681363
0.000553072
0.000434238
)
;

boundaryField
{
    floor
    {
        Cmu             0.09;
        kappa           0.41;
        E               9.8;
        type            epsilonWallFunction;
        value           nonuniform List<scalar> 
29
(
0.000660101
4.83874e-05
8.52237e-05
0.000121476
0.00012089
0.00010937
9.49528e-05
7.83534e-05
6.38657e-05
5.23735e-05
4.34121e-05
3.63905e-05
3.08306e-05
2.63912e-05
2.27905e-05
1.97793e-05
1.71437e-05
1.46824e-05
1.32703e-05
1.02074e-05
1.02074e-05
2.3777e-05
3.78403e-05
5.12457e-05
0.000660101
4.83874e-05
5.78363e-05
0.000416965
0.00127406
)
;
    }
    ceiling
    {
        Cmu             0.09;
        kappa           0.41;
        E               9.8;
        type            epsilonWallFunction;
        value           nonuniform List<scalar> 
43
(
0.00267335
0.00319035
0.00360189
0.00451974
0.00400579
0.00356378
0.00322408
0.00277059
0.00222867
0.00167766
0.00118041
0.000787883
0.000520928
0.000356943
0.000259514
0.000200491
0.000163296
0.000139212
0.000123857
0.000114925
0.000111032
0.00011119
0.00011421
0.000119812
0.000127972
0.00013889
0.000152986
0.000170978
0.000194063
0.000223944
0.000261604
0.000309161
0.000369251
0.000445323
0.000541048
0.000688078
0.000734432
0.000681363
0.000553072
0.000434238
0.0110804
0.0181535
0.00371925
)
;
    }
    sWall
    {
        Cmu             0.09;
        kappa           0.41;
        E               9.8;
        type            epsilonWallFunction;
        value           uniform 0.00267335;
    }
    nWall
    {
        Cmu             0.09;
        kappa           0.41;
        E               9.8;
        type            epsilonWallFunction;
        value           nonuniform List<scalar> 6(0.00022208 0.000256244 0.000392155 0.000588174 0.00061029 0.000434238);
    }
    sideWalls
    {
        type            empty;
    }
    glass1
    {
        Cmu             0.09;
        kappa           0.41;
        E               9.8;
        type            epsilonWallFunction;
        value           nonuniform List<scalar> 9(0.000523119 0.00131764 0.00238464 0.0038272 0.00578995 0.00849019 0.0114966 0.0120763 0.0110804);
    }
    glass2
    {
        Cmu             0.09;
        kappa           0.41;
        E               9.8;
        type            epsilonWallFunction;
        value           nonuniform List<scalar> 2(0.00144206 0.0011242);
    }
    sun
    {
        Cmu             0.09;
        kappa           0.41;
        E               9.8;
        type            epsilonWallFunction;
        value           nonuniform List<scalar> 
14
(
0.000523119
0.000687564
0.000728695
0.000842292
0.000959033
0.00107938
0.00120926
0.00133651
0.00142621
0.0014567
0.001412
0.00128898
0.00109957
0.000875203
)
;
    }
    heatsource1
    {
        Cmu             0.09;
        kappa           0.41;
        E               9.8;
        type            epsilonWallFunction;
        value           nonuniform List<scalar> 3(9.27129e-05 0.000158146 0.00022208);
    }
    heatsource2
    {
        Cmu             0.09;
        kappa           0.41;
        E               9.8;
        type            epsilonWallFunction;
        value           nonuniform List<scalar> 4(0.000716524 0.000143631 0.000143631 0.000776988);
    }
    Table_master
    {
        Cmu             0.09;
        kappa           0.41;
        E               9.8;
        type            epsilonWallFunction;
        value           nonuniform List<scalar> 9(0.000224308 0.000154027 0.000109546 8.06478e-05 6.12793e-05 4.78967e-05 3.84092e-05 3.15788e-05 2.66946e-05);
    }
    Table_slave
    {
        Cmu             0.09;
        kappa           0.41;
        E               9.8;
        type            epsilonWallFunction;
        value           nonuniform List<scalar> 9(0.000319174 0.000240831 0.00019342 0.000161516 0.000137009 0.000116957 9.95764e-05 8.33004e-05 6.68154e-05);
    }
    inlet
    {
        type            turbulentMixingLengthDissipationRateInlet;
        mixingLength    0.01;
        phi             phi;
        k               k;
        value           uniform 0.000101881;
    }
    outlet
    {
        type            zeroGradient;
    }
}


// ************************************************************************* //
