/*--------------------------------*- C++ -*----------------------------------*\
  =========                 |
  \\      /  F ield         | OpenFOAM: The Open Source CFD Toolbox
   \\    /   O peration     | Website:  https://openfoam.org
    \\  /    A nd           | Version:  6
     \\/     M anipulation  |
\*---------------------------------------------------------------------------*/
FoamFile
{
    version     2.0;
    format      ascii;
    class       volScalarField;
    location    "3000";
    object      nut;
}
// * * * * * * * * * * * * * * * * * * * * * * * * * * * * * * * * * * * * * //

dimensions      [0 2 -1 0 0 0 0];

internalField   nonuniform List<scalar> 
459
(
0.00113914
0.00124781
0.00127221
0.00133516
0.00139419
0.00145023
0.00150621
0.00155729
0.00159138
0.00160264
0.00158607
0.00153861
0.00145922
0.00135233
0.00123097
0.000515176
0.000622155
0.000700179
0.000699051
0.0006761
0.000644982
0.000604966
0.000565112
0.000528951
0.000496877
0.000468498
0.000443308
0.000420919
0.000400833
0.000382339
0.000364542
0.000346187
0.000334713
0.000306678
0.00154992
0.00388728
0.00376147
0.00439198
0.00501379
0.00562544
0.00614177
0.00654884
0.00690702
0.00718778
0.00735526
0.00737262
0.00718403
0.00664525
0.00516528
0.00126509
0.000740391
0.000546737
0.00115138
0.00160803
0.00194328
0.00212432
0.00211713
0.00168568
0.0014501
0.00128307
0.00115547
0.00105434
0.000972145
0.000901299
0.00083509
0.000770554
0.000713018
0.000661829
0.000787085
0.000406534
0.0018888
0.0053135
0.00469772
0.00587721
0.00647669
0.00692349
0.00726924
0.00756309
0.00787284
0.0081839
0.00845643
0.00864447
0.00869509
0.00851662
0.00784866
0.00594019
0.00129972
0.0010562
0.00154692
0.00200749
0.00242979
0.00271971
0.00264627
0.000859
0.00075784
0.000676463
0.000610815
0.000557378
0.000513429
0.000477006
0.000446866
0.000422525
0.000456756
0.000528926
0.000892928
0.000474639
0.00221142
0.00675385
0.0047502
0.00622616
0.00674288
0.00693669
0.00707994
0.00726177
0.00753013
0.00786729
0.00822012
0.00853216
0.00874167
0.00877123
0.00856494
0.00781852
0.00530937
0.00153265
0.00190901
0.00248327
0.00305426
0.00351275
0.00378981
0.00354111
0.000966172
0.000879595
0.000817608
0.000769929
0.000728834
0.000691386
0.000655286
0.000617439
0.000573681
0.000537731
0.000554354
0.00104683
0.000525127
0.00253865
0.00858167
0.00525527
0.00605118
0.00669799
0.00676431
0.00674434
0.00688002
0.00712595
0.00748454
0.00788553
0.0082524
0.00849449
0.00855885
0.00844056
0.00810655
0.00736096
0.00611963
0.00569404
0.00556523
0.00552794
0.00549665
0.0054226
0.0051863
0.00434376
0.00393951
0.00370162
0.00351545
0.00332057
0.00304116
0.002677
0.00224661
0.00177771
0.00131446
0.000971654
0.00102476
0.000688159
0.00063987
0.000764536
0.000856147
0.00288415
0.0105645
0.00718697
0.00617335
0.00664561
0.00675214
0.0067073
0.00679258
0.00698557
0.00731742
0.00774568
0.00815527
0.00841742
0.00845462
0.00827993
0.00798285
0.00766018
0.00736242
0.00719847
0.00705475
0.00686875
0.00664551
0.00639303
0.00609111
0.00568206
0.00532953
0.00502707
0.00474569
0.00446634
0.00416181
0.0037781
0.00330081
0.00273354
0.00211591
0.00157971
0.00117653
0.000921369
0.000812271
0.00117551
0.000897973
0.00319082
0.0119107
0.00988744
0.00793554
0.00760499
0.00732146
0.00702893
0.00691367
0.00703944
0.00739511
0.00788328
0.00834027
0.00860259
0.00858196
0.00831462
0.00796628
0.00774745
0.00772367
0.0077346
0.00760809
0.00732879
0.00695502
0.00653156
0.00608543
0.00564457
0.00526084
0.00492839
0.00463088
0.00436347
0.00412909
0.00392363
0.00359571
0.00313801
0.00259195
0.00208224
0.00162497
0.00132522
0.00126634
0.00132839
0.00103482
0.00324357
0.0103882
0.00938705
0.00867327
0.00798971
0.00731166
0.00689867
0.00685553
0.00716653
0.00772642
0.00835645
0.00884481
0.0090268
0.0088535
0.00842891
0.00801265
0.00785416
0.00789692
0.00779636
0.00745178
0.00694136
0.00635174
0.00575655
0.00521905
0.00477717
0.00442999
0.00415213
0.0039274
0.00375387
0.00363682
0.00358154
0.0035444
0.00327342
0.00291169
0.00260639
0.00247944
0.00265528
0.00323052
0.00406163
0.00159725
0.00315183
0.00371562
0.00409094
0.00418418
0.00440256
0.00488593
0.00564777
0.00663266
0.00770933
0.00869812
0.00940904
0.00968548
0.00949184
0.00894744
0.00833215
0.00796298
0.00773617
0.00747437
0.00702799
0.00640158
0.00569141
0.00500413
0.00442038
0.00397046
0.00363817
0.00338751
0.00318749
0.00301997
0.00287405
0.0027413
0.00261485
0.00249907
0.00240749
0.00234836
0.00234101
0.0023722
0.00236974
0.00226962
0.00210872
0.00147003
0.0014411
0.00368106
0.00669513
0.00866953
0.00997822
0.010783
0.0111231
0.0110665
0.0106903
0.010079
0.00920951
0.00832919
0.00765888
0.00719074
0.00671695
0.00613078
0.00545258
0.00475476
0.00411143
0.00359047
0.00320901
0.00293995
0.00274727
0.00260339
0.00249187
0.00240473
0.00233918
0.00229626
0.00228072
0.00229002
0.00231311
0.00234707
0.00238074
0.00238264
0.00230543
0.00213285
0.0018769
0.00118453
0.00219043
0.00681015
0.00938774
0.0100721
0.0102842
0.0101387
0.00966486
0.00898336
0.00820985
0.00745226
0.00673652
0.00613551
0.00563572
0.00513487
0.00459129
0.00404454
0.00354188
0.00311542
0.00277756
0.00251935
0.00233591
0.00220991
0.00212743
0.00208001
0.00206236
0.00206985
0.00209658
0.00213797
0.00220128
0.0022818
0.00237572
0.00247555
0.00256469
0.00262828
0.00261739
0.00261996
0.00236916
0.0011992
0.00196214
0.00208125
0.00216715
0.00233749
0.0022453
0.00215948
0.00208856
0.00198565
0.00184669
0.00167989
0.00149413
0.00130577
0.00113755
0.00100287
0.000901776
0.000827454
0.000772747
0.000732719
0.000704724
0.000687359
0.000679507
0.000679829
0.000685931
0.000696967
0.000712444
0.000732153
0.000756129
0.000784679
0.000818514
0.000858536
0.000904191
0.000955961
0.00101427
0.00107962
0.00115201
0.00124812
0.00127554
0.00124405
0.00116048
0.00107058
)
;

boundaryField
{
    floor
    {
        type            nutkWallFunction;
        Cmu             0.09;
        kappa           0.41;
        E               9.8;
        value           nonuniform List<scalar> 
29
(
0.000147557
6.16536e-05
7.51126e-05
8.47496e-05
8.46112e-05
8.17899e-05
7.79464e-05
7.29705e-05
6.79747e-05
6.34046e-05
5.93185e-05
5.56759e-05
5.24194e-05
4.95053e-05
4.68743e-05
4.44371e-05
4.20771e-05
3.96278e-05
3.8088e-05
3.42961e-05
3.4296e-05
4.76222e-05
5.64657e-05
6.29182e-05
0.000147557
6.16535e-05
6.56569e-05
0.000127308
0.000181782
)
;
    }
    ceiling
    {
        type            nutkWallFunction;
        Cmu             0.09;
        kappa           0.41;
        E               9.8;
        value           nonuniform List<scalar> 
43
(
0.000229081
0.00024202
0.000251305
0.000269747
0.000259906
0.000250676
0.000243013
0.000231833
0.00021663
0.000198213
0.000177463
0.000156127
0.00013678
0.000121057
0.000109096
0.000100203
9.35975e-05
8.87296e-05
8.53064e-05
8.31749e-05
8.2209e-05
8.22487e-05
8.29993e-05
8.43551e-05
8.6252e-05
8.86605e-05
9.15803e-05
9.50428e-05
9.91271e-05
0.000103933
0.000109383
0.000115525
0.000122397
0.000130045
0.000138457
0.000149533
0.000152676
0.000149066
0.000139438
0.000128992
0.00035589
0.000413971
0.000253608
)
;
    }
    sWall
    {
        type            nutkWallFunction;
        Cmu             0.09;
        kappa           0.41;
        E               9.8;
        value           uniform 0.000229146;
    }
    nWall
    {
        type            nutkWallFunction;
        Cmu             0.09;
        kappa           0.41;
        E               9.8;
        value           nonuniform List<scalar> 6(0.000103649 0.000108645 0.000124813 0.000142228 0.000143919 0.000129);
    }
    sideWalls
    {
        type            empty;
    }
    glass1
    {
        type            nutkWallFunction;
        Cmu             0.09;
        kappa           0.41;
        E               9.8;
        value           nonuniform List<scalar> 9(0.000137094 0.000183976 0.000221595 0.000256731 0.000291811 0.000328337 0.000360378 0.000365869 0.000356354);
    }
    glass2
    {
        type            nutkWallFunction;
        Cmu             0.09;
        kappa           0.41;
        E               9.8;
        value           nonuniform List<scalar> 2(0.000189113 0.000174837);
    }
    sun
    {
        type            nutkWallFunction;
        Cmu             0.09;
        kappa           0.41;
        E               9.8;
        value           nonuniform List<scalar> 
14
(
0.000136966
0.000149492
0.000152288
0.000159473
0.000166178
0.000172514
0.000178816
0.000184543
0.000188354
0.000189611
0.000187761
0.00018245
0.000173526
0.000161425
)
;
    }
    heatsource1
    {
        type            nutkWallFunction;
        Cmu             0.09;
        kappa           0.41;
        E               9.8;
        value           nonuniform List<scalar> 3(7.73144e-05 9.26016e-05 0.000103646);
    }
    heatsource2
    {
        type            nutkWallFunction;
        Cmu             0.09;
        kappa           0.41;
        E               9.8;
        value           nonuniform List<scalar> 4(0.000151465 8.96662e-05 8.96662e-05 0.000155425);
    }
    Table_master
    {
        type            nutkWallFunction;
        Cmu             0.09;
        kappa           0.41;
        E               9.8;
        value           nonuniform List<scalar> 9(0.000103987 9.17887e-05 8.18366e-05 7.37036e-05 6.70054e-05 6.14375e-05 5.67786e-05 5.28898e-05 4.97253e-05);
    }
    Table_slave
    {
        type            nutkWallFunction;
        Cmu             0.09;
        kappa           0.41;
        E               9.8;
        value           nonuniform List<scalar> 9(0.000116728 0.000106449 9.90172e-05 9.32559e-05 8.82565e-05 8.36714e-05 7.92232e-05 7.45281e-05 6.90559e-05);
    }
    inlet
    {
        type            calculated;
        value           uniform 0.000100623;
    }
    outlet
    {
        type            calculated;
        value           nonuniform List<scalar> 2(0.00196214 0.00208125);
    }
}


// ************************************************************************* //
