/*--------------------------------*- C++ -*----------------------------------*\
  =========                 |
  \\      /  F ield         | OpenFOAM: The Open Source CFD Toolbox
   \\    /   O peration     | Website:  https://openfoam.org
    \\  /    A nd           | Version:  6
     \\/     M anipulation  |
\*---------------------------------------------------------------------------*/
FoamFile
{
    version     2.0;
    format      ascii;
    class       volScalarField;
    location    "3000";
    object      T;
}
// * * * * * * * * * * * * * * * * * * * * * * * * * * * * * * * * * * * * * //

dimensions      [0 0 0 1 0 0 0];

internalField   nonuniform List<scalar> 
459
(
302.674
302.394
302.379
302.375
302.37
302.366
302.361
302.355
302.346
302.335
302.325
302.317
302.313
302.315
302.324
302.46
302.433
302.423
302.426
302.431
302.437
302.442
302.448
302.453
302.458
302.463
302.468
302.473
302.478
302.484
302.489
302.495
302.502
302.527
302.859
302.435
302.407
302.407
302.409
302.408
302.404
302.395
302.378
302.355
302.332
302.312
302.301
302.297
302.299
302.299
302.299
302.463
302.413
302.405
302.409
302.416
302.422
302.425
302.428
302.43
302.432
302.433
302.435
302.437
302.439
302.443
302.448
302.456
302.467
302.508
303.053
302.488
302.441
302.449
302.461
302.469
302.471
302.461
302.432
302.391
302.349
302.315
302.295
302.29
302.293
302.298
302.301
302.389
302.385
302.394
302.408
302.423
302.434
302.434
302.434
302.434
302.434
302.434
302.434
302.435
302.435
302.437
302.441
302.446
302.456
302.5
303.25
302.555
302.48
302.493
302.519
302.544
302.558
302.545
302.499
302.432
302.367
302.317
302.289
302.283
302.289
302.299
302.309
302.326
302.346
302.374
302.402
302.428
302.451
302.469
302.483
302.495
302.506
302.515
302.522
302.528
302.533
302.536
302.538
302.506
302.479
302.467
302.502
303.442
302.642
302.528
302.536
302.574
302.618
302.65
302.629
302.559
302.461
302.374
302.312
302.28
302.274
302.286
302.306
302.328
302.352
302.381
302.414
302.447
302.477
302.503
302.523
302.541
302.556
302.568
302.577
302.582
302.584
302.582
302.578
302.569
302.544
302.51
302.483
302.499
302.597
302.642
302.649
303.615
302.756
302.614
302.601
302.642
302.702
302.726
302.677
302.578
302.463
302.361
302.291
302.26
302.263
302.287
302.322
302.358
302.395
302.433
302.471
302.507
302.538
302.563
302.583
302.599
302.611
302.621
302.627
302.63
302.627
302.62
302.61
302.595
302.572
302.538
302.506
302.502
302.543
302.563
302.604
303.778
302.936
302.799
302.774
302.791
302.825
302.785
302.679
302.541
302.405
302.3
302.241
302.228
302.251
302.298
302.354
302.408
302.458
302.503
302.542
302.576
302.603
302.624
302.64
302.653
302.661
302.667
302.67
302.669
302.663
302.651
302.636
302.619
302.596
302.566
302.534
302.52
302.531
302.545
302.579
304.011
303.386
303.237
303.158
303.088
302.956
302.771
302.568
302.384
302.248
302.173
302.159
302.192
302.257
302.338
302.419
302.487
302.542
302.585
302.618
302.644
302.664
302.679
302.689
302.697
302.701
302.703
302.701
302.698
302.691
302.68
302.664
302.647
302.627
302.604
302.581
302.574
302.594
302.621
302.773
304.347
304.05
303.754
303.441
303.063
302.655
302.315
302.081
301.96
301.937
301.989
302.089
302.204
302.321
302.437
302.529
302.588
302.629
302.659
302.683
302.7
302.713
302.722
302.727
302.73
302.731
302.73
302.727
302.723
302.719
302.717
302.717
302.719
302.728
302.747
302.776
302.818
302.859
302.885
302.948
293.354
295.243
297.227
298.704
299.774
300.577
301.188
301.645
301.986
302.247
302.402
302.508
302.586
302.64
302.676
302.702
302.72
302.734
302.743
302.75
302.754
302.756
302.758
302.758
302.758
302.758
302.758
302.759
302.76
302.763
302.768
302.779
302.797
302.822
302.852
302.88
302.902
302.924
294.548
297.001
299.193
300.306
301.012
301.506
301.862
302.13
302.333
302.48
302.578
302.644
302.688
302.719
302.739
302.753
302.763
302.77
302.774
302.777
302.778
302.779
302.78
302.781
302.781
302.782
302.783
302.784
302.786
302.788
302.793
302.8
302.813
302.83
302.85
302.873
302.872
302.904
298.286
298.21
298.205
300.524
301.448
301.846
302.089
302.274
302.419
302.531
302.618
302.681
302.725
302.755
302.775
302.789
302.798
302.804
302.808
302.81
302.811
302.811
302.81
302.81
302.809
302.809
302.808
302.807
302.807
302.806
302.806
302.807
302.809
302.812
302.817
302.83
302.841
302.849
302.853
302.893
)
;

boundaryField
{
    floor
    {
        type            wallHeatTransfer;
        Tinf            uniform 305.2;
        alphaWall       uniform 0.24;
        value           nonuniform List<scalar> 
29
(
302.599
302.95
302.868
302.825
302.828
302.843
302.861
302.885
302.911
302.936
302.961
302.985
303.008
303.03
303.052
303.074
303.096
303.12
303.138
303.191
303.191
303.07
303.01
302.979
302.599
302.95
302.933
302.69
302.557
)
;
    }
    ceiling
    {
        type            wallHeatTransfer;
        Tinf            uniform 303.2;
        alphaWall       uniform 0.24;
        value           nonuniform List<scalar> 
43
(
298.607
298.521
298.506
300.676
301.552
301.928
302.159
302.335
302.473
302.581
302.666
302.728
302.773
302.805
302.827
302.842
302.852
302.86
302.864
302.867
302.868
302.868
302.868
302.867
302.865
302.863
302.862
302.86
302.858
302.855
302.854
302.852
302.852
302.853
302.855
302.865
302.874
302.882
302.888
302.925
304.295
304.017
295.06
)
;
    }
    sWall
    {
        type            wallHeatTransfer;
        Tinf            uniform 315.2;
        alphaWall       uniform 0.36;
        value           uniform 299.896;
    }
    nWall
    {
        type            wallHeatTransfer;
        Tinf            uniform 307.2;
        alphaWall       uniform 0.36;
        value           nonuniform List<scalar> 6(303.455 303.391 303.295 303.526 303.503 303.545);
    }
    sideWalls
    {
        type            empty;
    }
    glass1
    {
        type            wallHeatTransfer;
        Tinf            uniform 315.2;
        alphaWall       uniform 4.3;
        value           nonuniform List<scalar> 9(311.112 310.426 310 309.68 309.415 309.177 309.009 309.096 309.349);
    }
    glass2
    {
        type            wallHeatTransfer;
        Tinf            uniform 307.2;
        alphaWall       uniform 4.3;
        value           nonuniform List<scalar> 2(305.446 305.587);
    }
    sun
    {
        type            wallHeatTransfer;
        Tinf            uniform 305.2;
        alphaWall       uniform 0.24;
        value           nonuniform List<scalar> 
14
(
302.93
302.658
302.641
302.627
302.615
302.604
302.592
302.58
302.568
302.557
302.55
302.548
302.555
302.571
)
;
    }
    heatsource1
    {
        type            fixedGradient;
        gradient        uniform 0;
    }
    heatsource2
    {
        type            fixedGradient;
        gradient        uniform 0;
    }
    Table_master
    {
        type            zeroGradient;
    }
    Table_slave
    {
        type            zeroGradient;
    }
    inlet
    {
        type            fixedValue;
        value           uniform 290.15;
    }
    outlet
    {
        type            zeroGradient;
    }
}


// ************************************************************************* //
