/*--------------------------------*- C++ -*----------------------------------*\
  =========                 |
  \\      /  F ield         | OpenFOAM: The Open Source CFD Toolbox
   \\    /   O peration     | Website:  https://openfoam.org
    \\  /    A nd           | Version:  6
     \\/     M anipulation  |
\*---------------------------------------------------------------------------*/
FoamFile
{
    version     2.0;
    format      ascii;
    class       volScalarField;
    location    "2500";
    object      alphat;
}
// * * * * * * * * * * * * * * * * * * * * * * * * * * * * * * * * * * * * * //

dimensions      [1 -1 -1 0 0 0 0];

internalField   nonuniform List<scalar> 
459
(
0.00132487
0.00145254
0.0014809
0.00155413
0.00162278
0.00168791
0.00175293
0.00181237
0.00185208
0.00186528
0.00184614
0.00179109
0.00169904
0.00157534
0.00143543
0.000595132
0.000717696
0.000806969
0.000804685
0.000777075
0.00074025
0.000693419
0.000646993
0.000604971
0.000567771
0.000534917
0.000505804
0.000479943
0.000456793
0.00043553
0.000415129
0.000394208
0.000381903
0.000350677
0.00180183
0.00452538
0.00437975
0.00511414
0.00583791
0.00654996
0.00715173
0.00762525
0.00804196
0.00836863
0.00856312
0.00858207
0.00835938
0.00772501
0.00598601
0.00147488
0.000856998
0.000632008
0.00132585
0.00184852
0.00223129
0.00243681
0.00242658
0.00193124
0.00165973
0.00146716
0.00132011
0.00120358
0.00110889
0.00102789
0.000952336
0.000878708
0.000812866
0.000753839
0.000900761
0.000467753
0.00219452
0.00618466
0.00546959
0.00684596
0.00754502
0.00806559
0.00846824
0.00880946
0.00916939
0.00953119
0.00984789
0.0100656
0.0101221
0.009911
0.00913253
0.00691303
0.00151165
0.0012217
0.00178366
0.00230733
0.00278743
0.00311637
0.00303128
0.000987551
0.000870008
0.000775631
0.000699606
0.000637795
0.000587005
0.000544935
0.000510125
0.000481968
0.0005199
0.000600679
0.00102344
0.000548125
0.0025678
0.00785979
0.00552947
0.00725283
0.00785708
0.00808288
0.00824852
0.00845833
0.0087699
0.00916235
0.00957325
0.00993619
0.010179
0.0102122
0.00996983
0.00910106
0.00619919
0.0017817
0.00221167
0.0028663
0.00351569
0.00403636
0.00434973
0.00406272
0.00111144
0.0010089
0.000935092
0.000878306
0.000829681
0.000785813
0.00074364
0.000699624
0.000649046
0.000609784
0.000631042
0.0012102
0.000607012
0.00294596
0.00998441
0.00611592
0.00704624
0.00780346
0.0078807
0.00785483
0.00801048
0.00829625
0.0087143
0.00918194
0.00961005
0.00989309
0.00996832
0.00982901
0.0094361
0.00856278
0.00710491
0.00659647
0.00643537
0.00638308
0.00634035
0.00624926
0.0059695
0.00498693
0.00450932
0.00422614
0.00400555
0.00377724
0.00345304
0.00303573
0.00254493
0.0020123
0.00148917
0.00110388
0.00117143
0.000797603
0.000745415
0.000889428
0.000995867
0.00334502
0.0122868
0.00836135
0.00718312
0.00773471
0.00786206
0.00780595
0.0079052
0.00813035
0.0085172
0.00901665
0.00949513
0.00980277
0.00984827
0.00964454
0.009293
0.00890525
0.00854258
0.00833862
0.00816544
0.00794918
0.00769277
0.00740228
0.00705013
0.00656407
0.00613901
0.00577089
0.00542735
0.00508685
0.00472046
0.00427227
0.00372675
0.00308819
0.00239842
0.00180359
0.00133781
0.00106824
0.000947282
0.00136741
0.0010445
0.00369874
0.0138441
0.0114961
0.00922648
0.00884139
0.00851504
0.00817677
0.00804428
0.00819156
0.00860605
0.00917506
0.00970879
0.0100171
0.00999594
0.00968413
0.00927026
0.00899885
0.00895492
0.00896365
0.00882505
0.00851551
0.00809749
0.00761703
0.00709794
0.00656706
0.00609071
0.00566956
0.0052894
0.00494731
0.00464865
0.00439215
0.0040274
0.00352843
0.00293134
0.00238289
0.00188015
0.00156138
0.00148046
0.00150787
0.00119045
0.00375696
0.0120576
0.0109
0.0100763
0.00928583
0.00850176
0.0080247
0.00797664
0.00833974
0.00899208
0.00972627
0.0102964
0.0105109
0.0103112
0.00981332
0.0093145
0.00911166
0.00915968
0.00906295
0.00869038
0.00812446
0.00745687
0.00676405
0.00611566
0.0055615
0.00511199
0.0047457
0.004448
0.00421784
0.00406031
0.00397901
0.00393482
0.00369368
0.00331479
0.00300531
0.00288404
0.0030541
0.00356878
0.00458208
0.00180119
0.00364658
0.0043032
0.004743
0.00485561
0.0051138
0.00568033
0.00657084
0.00772096
0.00897735
0.0101301
0.0109582
0.0112802
0.0110546
0.0104176
0.00968497
0.00924058
0.00897922
0.00869872
0.00821989
0.00752891
0.00672353
0.00591799
0.00520709
0.00463837
0.00420589
0.00387531
0.00361371
0.003401
0.0032246
0.00307456
0.00294252
0.00282793
0.00274284
0.00269048
0.00268911
0.00272567
0.0027257
0.00262339
0.00243859
0.0016712
0.00172979
0.00438335
0.00791926
0.0102064
0.0117087
0.012623
0.0129984
0.0129146
0.0124611
0.0117335
0.0107128
0.0096761
0.00888509
0.00834765
0.0078246
0.00717769
0.006417
0.00562588
0.00488605
0.00425928
0.00378037
0.003434
0.00318383
0.00299867
0.00285906
0.00275478
0.00268122
0.00263771
0.00262706
0.00264747
0.00268798
0.00274687
0.0028182
0.00288034
0.00290501
0.00289417
0.00256551
0.00138105
0.00261473
0.00805434
0.0110373
0.0118046
0.0120306
0.0118455
0.0112816
0.0104766
0.00956439
0.00867009
0.00782847
0.00712506
0.00655098
0.00598908
0.00538276
0.00477156
0.00420706
0.00372461
0.0033364
0.00303644
0.00280794
0.0026434
0.00252943
0.00245704
0.00242087
0.00241627
0.00243716
0.0024795
0.0025498
0.00264302
0.00275528
0.00287977
0.00300186
0.0031052
0.00318971
0.00320324
0.00221337
0.00142596
0.0023134
0.00245467
0.00255607
0.00273637
0.00262167
0.00251897
0.00243494
0.00231417
0.00215186
0.00195756
0.00174154
0.00152257
0.00132688
0.00117023
0.0010528
0.000966597
0.000903002
0.000855917
0.000821927
0.000799238
0.000786581
0.000782901
0.000786864
0.000796693
0.00081191
0.00083233
0.000858024
0.000889349
0.000927109
0.000972195
0.00102414
0.00108351
0.0011507
0.00122616
0.00130955
0.00140539
0.0014315
0.00130402
0.00121509
0.00137803
)
;

boundaryField
{
    floor
    {
        type            compressible::alphatWallFunction;
        Prt             0.85;
        value           nonuniform List<scalar> 
29
(
0.00020224
8.36125e-05
0.000101762
0.000114743
0.000114413
0.000110416
0.000105059
9.81989e-05
9.13426e-05
8.50849e-05
7.95006e-05
7.45311e-05
7.00957e-05
6.61289e-05
6.2555e-05
5.92523e-05
5.60641e-05
5.27736e-05
5.08282e-05
4.58541e-05
4.58534e-05
6.42506e-05
7.65345e-05
8.53917e-05
0.000202238
8.36115e-05
8.91167e-05
0.000173104
0.000248454
)
;
    }
    ceiling
    {
        type            compressible::alphatWallFunction;
        Prt             0.85;
        value           nonuniform List<scalar> 
43
(
0.000317432
0.000335487
0.000348382
0.000371334
0.00035691
0.000343909
0.000333227
0.000317791
0.000296903
0.000271668
0.000243288
0.000214117
0.00018765
0.000166143
0.000149806
0.000137679
0.000128652
0.00012192
0.000117033
0.000113758
0.000111926
0.000111392
0.000111967
0.00011339
0.000115589
0.000118532
0.000122223
0.000126705
0.000132084
0.000138472
0.00014579
0.000154101
0.000163444
0.000173862
0.000185291
0.000198325
0.000201859
0.000184537
0.000172345
0.000194626
0.000484494
0.000564096
0.000355574
)
;
    }
    sWall
    {
        type            compressible::alphatWallFunction;
        Prt             0.85;
        value           uniform 0.00031616;
    }
    nWall
    {
        type            compressible::alphatWallFunction;
        Prt             0.85;
        value           nonuniform List<scalar> 6(0.000141463 0.000148291 0.000168574 0.000194681 0.000200761 0.000194277);
    }
    sideWalls
    {
        type            empty;
    }
    glass1
    {
        type            compressible::alphatWallFunction;
        Prt             0.85;
        value           nonuniform List<scalar> 9(0.000182498 0.00024549 0.000296114 0.000343432 0.000390701 0.000439948 0.000483145 0.000490361 0.000477207);
    }
    glass2
    {
        type            compressible::alphatWallFunction;
        Prt             0.85;
        value           nonuniform List<scalar> 2(0.000249106 0.000232076);
    }
    sun
    {
        type            compressible::alphatWallFunction;
        Prt             0.85;
        value           nonuniform List<scalar> 
14
(
0.000187255
0.000204556
0.000208378
0.000218211
0.000227384
0.000236046
0.000244657
0.000252498
0.000257721
0.000259454
0.000256939
0.000249692
0.00023752
0.000221046
)
;
    }
    heatsource1
    {
        type            compressible::alphatWallFunction;
        Prt             0.85;
        value           nonuniform List<scalar> 3(0.000105965 0.000126741 0.000141838);
    }
    heatsource2
    {
        type            compressible::alphatWallFunction;
        Prt             0.85;
        value           nonuniform List<scalar> 4(0.00020774 0.0001221 0.000122099 0.000212684);
    }
    Table_master
    {
        type            compressible::alphatWallFunction;
        Prt             0.85;
        value           nonuniform List<scalar> 9(0.000140662 0.000123961 0.000110359 9.92571e-05 9.01231e-05 8.25365e-05 7.61909e-05 7.08943e-05 6.65767e-05);
    }
    Table_slave
    {
        type            compressible::alphatWallFunction;
        Prt             0.85;
        value           nonuniform List<scalar> 9(0.000158019 0.000143673 0.000133242 0.000125152 0.000118174 0.000111838 0.000105706 9.9262e-05 9.17956e-05);
    }
    inlet
    {
        type            fixedValue;
        value           uniform 1.94e-05;
    }
    outlet
    {
        type            zeroGradient;
    }
}


// ************************************************************************* //
