/*--------------------------------*- C++ -*----------------------------------*\
  =========                 |
  \\      /  F ield         | OpenFOAM: The Open Source CFD Toolbox
   \\    /   O peration     | Website:  https://openfoam.org
    \\  /    A nd           | Version:  6
     \\/     M anipulation  |
\*---------------------------------------------------------------------------*/
FoamFile
{
    version     2.0;
    format      ascii;
    class       volScalarField;
    location    "2500";
    object      nut;
}
// * * * * * * * * * * * * * * * * * * * * * * * * * * * * * * * * * * * * * //

dimensions      [0 2 -1 0 0 0 0];

internalField   nonuniform List<scalar> 
459
(
0.00113861
0.00124717
0.00127147
0.00133431
0.00139323
0.00144913
0.00150493
0.00155592
0.00158997
0.00160125
0.00158476
0.00153747
0.00145843
0.00135226
0.00123219
0.0005111
0.000616303
0.00069294
0.000690986
0.000667289
0.000635679
0.000595474
0.000555615
0.000519538
0.000487599
0.000459392
0.000434397
0.000412194
0.000392319
0.000374063
0.000356548
0.000338585
0.000328025
0.000301229
0.0015495
0.00388618
0.00376077
0.00439138
0.00501288
0.00562429
0.00614094
0.00654734
0.00690476
0.00718469
0.00735109
0.00736688
0.00717544
0.00663083
0.00513817
0.00126598
0.000735614
0.000542787
0.00113849
0.00158725
0.00191595
0.00209247
0.00208373
0.00165839
0.00142525
0.0012599
0.00113363
0.00103357
0.000952255
0.000882706
0.000817826
0.000754607
0.000698075
0.000647401
0.000773609
0.00040178
0.00188845
0.00531215
0.00469722
0.00587939
0.00648
0.00692729
0.00727315
0.00756596
0.00787435
0.00818394
0.00845469
0.00864066
0.00868852
0.00850717
0.00783904
0.005934
0.00129758
0.001049
0.0015315
0.00198119
0.00239354
0.00267611
0.00260314
0.000848066
0.000747125
0.00066608
0.000600793
0.000547713
0.000504098
0.00046797
0.000438077
0.000413899
0.00044648
0.00051586
0.000878961
0.000470814
0.00221115
0.00675261
0.00474936
0.00622986
0.00674947
0.00694399
0.00708664
0.0072666
0.00753313
0.00786848
0.00821958
0.00852979
0.00873743
0.00876572
0.00855784
0.00781238
0.00532157
0.00152955
0.0018988
0.00246104
0.00301889
0.00346627
0.00373566
0.00348936
0.000954632
0.00086659
0.000803223
0.000754468
0.000712717
0.000675047
0.000638829
0.000601023
0.000557576
0.000523792
0.000542005
0.00103941
0.000521411
0.00253846
0.00858059
0.00525403
0.00605341
0.00670478
0.00677213
0.0067506
0.00688391
0.00712784
0.0074846
0.00788397
0.00824986
0.00849192
0.00855633
0.00843708
0.00810034
0.00735116
0.00610007
0.00566407
0.00552633
0.00548201
0.00544584
0.00536804
0.00512807
0.00428426
0.00387413
0.00363099
0.00344157
0.00324547
0.00296693
0.00260835
0.00218662
0.00172893
0.00127936
0.000948249
0.00100619
0.000685134
0.000640516
0.000764372
0.000855864
0.00288402
0.0105635
0.00718522
0.00617247
0.00664734
0.00675812
0.00671043
0.00679466
0.00698592
0.00731553
0.0077419
0.00815085
0.00841404
0.00845314
0.00827893
0.00797807
0.0076461
0.00733559
0.00716134
0.00701348
0.00682852
0.00660893
0.00635989
0.00605772
0.00564038
0.00527537
0.0049592
0.00466409
0.00437152
0.00405663
0.00367139
0.00320248
0.00265362
0.00206075
0.00154949
0.00114921
0.000917636
0.000813844
0.00117486
0.000897551
0.00319077
0.0119097
0.00988533
0.00793305
0.00760236
0.00732257
0.00703074
0.00691443
0.00703782
0.00739061
0.0078765
0.00833304
0.00859727
0.00857975
0.0083134
0.00795957
0.00772791
0.00769144
0.00770007
0.00758199
0.00731685
0.0069583
0.00654589
0.00610013
0.00564412
0.00523488
0.00487302
0.00454633
0.00425229
0.00399552
0.00377491
0.00346124
0.00303224
0.00251891
0.00204742
0.00161529
0.00134136
0.0012719
0.0012955
0.0010229
0.00324356
0.0103885
0.00938649
0.00867493
0.00799253
0.00731449
0.00689984
0.00685393
0.00716157
0.00771825
0.00834636
0.00883519
0.00902019
0.00885071
0.00842557
0.00799944
0.00782701
0.0078697
0.00778768
0.00746835
0.00698261
0.00640927
0.00581408
0.00525696
0.00478074
0.00439441
0.00407957
0.00382366
0.00362577
0.00349028
0.00342028
0.00338211
0.00317465
0.0028488
0.00258264
0.00247823
0.0026243
0.00306674
0.00393783
0.00154875
0.00315181
0.00371571
0.00409147
0.0041843
0.00440133
0.00488235
0.00564143
0.00662372
0.00769844
0.00868631
0.00939794
0.00967725
0.00948728
0.0089441
0.00831828
0.00793906
0.00771604
0.00747601
0.0070652
0.00647178
0.00577983
0.00508759
0.00447659
0.00398774
0.00361597
0.00333178
0.00310687
0.00292397
0.00277229
0.00264327
0.00252973
0.00243122
0.00235808
0.00231313
0.00231209
0.00234375
0.00234409
0.0022564
0.00209765
0.00143788
0.00144112
0.00367541
0.00668477
0.00865806
0.00996802
0.0107752
0.0111182
0.0110633
0.0106869
0.0100716
0.00920024
0.00831285
0.00763528
0.00717473
0.00672599
0.00617044
0.00551685
0.00483694
0.00420101
0.0036622
0.00325048
0.00295269
0.0027376
0.0025784
0.00245836
0.0023687
0.00230546
0.00226805
0.0022589
0.00227647
0.00231135
0.00236206
0.00242352
0.00247715
0.00249858
0.00248946
0.00220691
0.00118821
0.00218726
0.00679361
0.00937839
0.0100677
0.0102846
0.010143
0.00967157
0.00898945
0.00821227
0.00744806
0.00672726
0.00612414
0.00563156
0.00514906
0.0046281
0.00410279
0.00361754
0.00320277
0.002869
0.00261109
0.00241462
0.00227314
0.00217514
0.00211289
0.0020818
0.00207785
0.00209582
0.00213224
0.0021927
0.00227288
0.00236946
0.00247657
0.00258166
0.00267066
0.0027435
0.00275531
0.00190402
0.00122677
0.00195981
0.00207896
0.00216479
0.00233553
0.00224451
0.00215943
0.00208909
0.00198669
0.00184823
0.00168197
0.0014968
0.00130888
0.00114083
0.00100624
0.000905331
0.000831242
0.000776578
0.000736101
0.000706879
0.000687372
0.00067649
0.000673326
0.000676735
0.000685187
0.000698273
0.000715834
0.00073793
0.000764869
0.000797342
0.000836116
0.000880792
0.000931851
0.000989643
0.00105455
0.00112629
0.00120875
0.00123125
0.00112163
0.00104536
0.00118594
)
;

boundaryField
{
    floor
    {
        type            nutkWallFunction;
        Cmu             0.09;
        kappa           0.41;
        E               9.8;
        value           nonuniform List<scalar> 
29
(
0.000147697
6.11343e-05
7.43841e-05
8.38611e-05
8.36211e-05
8.07039e-05
7.67929e-05
7.17843e-05
6.67781e-05
6.22087e-05
5.81306e-05
5.45014e-05
5.12619e-05
4.83646e-05
4.57541e-05
4.33415e-05
4.10124e-05
3.86084e-05
3.71873e-05
3.35539e-05
3.35538e-05
4.69981e-05
5.59735e-05
6.2446e-05
0.000147697
6.11343e-05
6.51573e-05
0.000126465
0.000181435
)
;
    }
    ceiling
    {
        type            nutkWallFunction;
        Cmu             0.09;
        kappa           0.41;
        E               9.8;
        value           nonuniform List<scalar> 
43
(
0.000228826
0.000241772
0.000251051
0.000269537
0.000259822
0.000250671
0.00024307
0.000231946
0.000216799
0.000198444
0.000177763
0.000156482
0.00013716
0.000121453
0.000109519
0.000100658
9.40618e-05
8.91421e-05
8.55705e-05
8.31765e-05
8.18374e-05
8.14477e-05
8.18676e-05
8.29078e-05
8.45153e-05
8.66668e-05
8.93651e-05
9.26419e-05
9.65738e-05
0.000101244
0.000106594
0.00011267
0.000119501
0.000127118
0.000135475
0.000145008
0.000147596
0.000134935
0.000126043
0.000142381
0.000355888
0.00041398
0.000253266
)
;
    }
    sWall
    {
        type            nutkWallFunction;
        Cmu             0.09;
        kappa           0.41;
        E               9.8;
        value           uniform 0.000228891;
    }
    nWall
    {
        type            nutkWallFunction;
        Cmu             0.09;
        kappa           0.41;
        E               9.8;
        value           nonuniform List<scalar> 6(0.000103615 0.000108595 0.000123415 0.000142653 0.000147094 0.000142392);
    }
    sideWalls
    {
        type            empty;
    }
    glass1
    {
        type            nutkWallFunction;
        Cmu             0.09;
        kappa           0.41;
        E               9.8;
        value           nonuniform List<scalar> 9(0.000137032 0.000183928 0.000221557 0.000256701 0.00029179 0.000328323 0.000360373 0.000365867 0.000356352);
    }
    glass2
    {
        type            nutkWallFunction;
        Cmu             0.09;
        kappa           0.41;
        E               9.8;
        value           nonuniform List<scalar> 2(0.000183685 0.000171208);
    }
    sun
    {
        type            nutkWallFunction;
        Cmu             0.09;
        kappa           0.41;
        E               9.8;
        value           nonuniform List<scalar> 
14
(
0.000136904
0.000149419
0.000152202
0.000159377
0.00016607
0.00017239
0.000178672
0.000184391
0.000188197
0.000189456
0.000187615
0.000182322
0.000173438
0.000161417
)
;
    }
    heatsource1
    {
        type            nutkWallFunction;
        Cmu             0.09;
        kappa           0.41;
        E               9.8;
        value           nonuniform List<scalar> 3(7.73945e-05 9.25817e-05 0.000103612);
    }
    heatsource2
    {
        type            nutkWallFunction;
        Cmu             0.09;
        kappa           0.41;
        E               9.8;
        value           nonuniform List<scalar> 4(0.000151567 8.9084e-05 8.9084e-05 0.000155181);
    }
    Table_master
    {
        type            nutkWallFunction;
        Cmu             0.09;
        kappa           0.41;
        E               9.8;
        value           nonuniform List<scalar> 9(0.000102677 9.04859e-05 8.05568e-05 7.2453e-05 6.57858e-05 6.0248e-05 5.56161e-05 5.17499e-05 4.85984e-05);
    }
    Table_slave
    {
        type            nutkWallFunction;
        Cmu             0.09;
        kappa           0.41;
        E               9.8;
        value           nonuniform List<scalar> 9(0.000115364 0.000104895 9.72832e-05 9.13788e-05 8.62866e-05 8.16617e-05 7.71858e-05 7.24809e-05 6.70292e-05);
    }
    inlet
    {
        type            calculated;
        value           uniform 0.000100623;
    }
    outlet
    {
        type            calculated;
        value           nonuniform List<scalar> 2(0.00195981 0.00207896);
    }
}


// ************************************************************************* //
