/*--------------------------------*- C++ -*----------------------------------*\
  =========                 |
  \\      /  F ield         | OpenFOAM: The Open Source CFD Toolbox
   \\    /   O peration     | Website:  https://openfoam.org
    \\  /    A nd           | Version:  6
     \\/     M anipulation  |
\*---------------------------------------------------------------------------*/
FoamFile
{
    version     2.0;
    format      ascii;
    class       surfaceScalarField;
    location    "2500";
    object      phi;
}
// * * * * * * * * * * * * * * * * * * * * * * * * * * * * * * * * * * * * * //

dimensions      [1 0 -1 0 0 0 0];

internalField   nonuniform List<scalar> 
852
(
-0.00304098
0.00310078
-0.00412282
0.00108184
-0.00492618
0.000803365
-0.00553912
0.000612934
-0.00592993
0.000390808
-0.0060749
0.000144976
-0.00595312
-0.000121781
-0.00555426
-0.000398865
-0.00490457
-0.000649689
-0.00406934
-0.000835225
-0.00313917
-0.000930168
-0.00221004
-0.00092913
-0.00136669
-0.000843355
-0.000647729
-0.00071896
-0.000645667
-0.000809603
0.00081331
-0.000478039
-0.000331564
0.000188326
-0.000666365
0.000717979
-0.000529653
0.00107253
-0.000354549
0.00129465
-0.000222122
0.0014159
-0.000121245
0.00147567
-5.97741e-05
0.0015092
-3.35292e-05
0.0015297
-2.05047e-05
0.00154126
-1.15559e-05
0.00154538
-4.11556e-06
0.0015404
4.97088e-06
0.00151806
2.23399e-05
0.00145581
6.22581e-05
0.00131588
0.000139923
0.00108615
0.000229737
0.000803316
0.00028283
0.000808353
-0.00216453
0.00542595
-0.00321018
0.00212749
-0.00403166
0.00162485
-0.00463318
0.00121446
-0.00501664
0.000774261
-0.00516693
0.000295271
-0.00506055
-0.000228167
-0.00469363
-0.000765784
-0.00410463
-0.00123869
-0.0033653
-0.00157456
-0.00256213
-0.00173333
-0.00177523
-0.00171603
-0.00107596
-0.00154262
-0.000540878
-0.00125404
-0.000313384
-0.00087316
4.9154e-05
-0.00036259
4.91025e-05
0.000370544
0.00045343
0.000799937
-0.000760957
0.00106376
-0.000930193
0.0012911
-0.000756991
0.0014651
-0.000528541
0.00156963
-0.00032666
0.00158655
-0.000138165
0.00159076
-6.39825e-05
0.00159591
-3.86735e-05
0.00160015
-2.47471e-05
0.0016029
-1.43124e-05
0.00160424
-5.45566e-06
0.00160336
5.85101e-06
0.00159665
2.90545e-05
0.00155468
0.000104229
0.0013749
0.000319705
0.00106634
0.000538289
0.000684788
0.000664387
0.00150589
-0.0015104
0.00718179
-0.00240862
0.00302571
-0.00313207
0.0023483
-0.00364183
0.00172422
-0.00396923
0.00110166
-0.00409334
0.000419376
-0.00397055
-0.000350948
-0.00360043
-0.0011359
-0.00304514
-0.00179398
-0.00238538
-0.00223432
-0.00170079
-0.00241792
-0.0010489
-0.00236793
-0.000476847
-0.00211467
-2.09797e-05
-0.00170991
0.000280818
-0.00117496
0.000436064
-0.000517835
0.000485166
0.00160082
-0.00113602
0.00182848
-0.000988618
0.00177985
-0.000881569
0.00176445
-0.000741586
0.00178299
-0.000547085
0.00180181
-0.000345482
0.0016638
0.00159997
0.00156145
0.00153686
0.0015227
0.0015174
0.00152341
0.00155261
0.001657
0.00135893
0.000617777
0.00100228
0.000894937
0.000571813
0.00109485
0.00209692
-0.00104992
0.00854934
-0.00175809
0.00373388
-0.00222895
0.00281916
-0.00255262
0.00204788
-0.00274976
0.00129881
-0.00277894
0.000448557
-0.00257547
-0.000554417
-0.00217079
-0.00154058
-0.00165765
-0.00230712
-0.00111208
-0.00277989
-0.000591686
-0.00293832
-0.000121298
-0.00283832
0.00028534
-0.00252131
0.000626828
-0.0020514
0.000938333
-0.00148646
0.00130749
-0.000886997
0.00216295
-0.000370289
0.00261087
-0.000437677
0.00218603
-0.000711179
0.00204171
-0.000844299
0.00191524
-0.000755095
0.0018047
-0.000631054
0.00174081
-0.000483191
0.00170635
-0.00031102
0.00183402
-0.00012783
0.00191176
-7.78838e-05
0.00197231
-6.07053e-05
0.00201604
-4.38835e-05
0.0020278
-1.19125e-05
0.00198622
4.14185e-05
0.00186696
0.00011911
0.00163791
0.000228894
0.00124406
0.000393696
0.00110048
0.000761361
0.000785676
0.00120974
0.000301834
0.00157869
0.00242386
-0.000732065
0.00966036
-0.00126612
0.00426794
-0.00134921
0.00290224
-0.0013844
0.00208307
-0.00136487
0.00127928
-0.00118175
0.000265433
-0.000813488
-0.000922679
-0.000375933
-0.00197814
4.32148e-05
-0.00272627
0.000398951
-0.00313562
0.000680738
-0.00322011
0.000894094
-0.00305167
0.00106121
-0.00268843
0.00120706
-0.00219725
0.00136453
-0.00164393
0.0015803
-0.00110276
0.00189443
-0.00068442
0.00201064
-0.000553894
0.00191059
-0.000611124
0.00171833
-0.000652035
0.00155397
-0.000590734
0.00141733
-0.000494421
0.00132102
-0.000386879
0.00127989
-0.000269886
0.00132115
-0.000169093
0.00137034
-0.000127074
0.00142402
-0.000114387
0.00147809
-9.7952e-05
0.00152075
-5.45772e-05
0.00153164
3.05341e-05
0.00149048
0.000160269
0.00138564
0.000333734
0.00121877
0.000560564
0.00107034
0.000909795
0.000905262
0.00137481
0.000507272
0.00197668
0.000378442
0.00255269
-0.00111855
0.00149679
-0.00157862
0.000459866
-0.00152459
-0.0006351
0.0107262
-0.00099369
0.00462653
-0.000534062
0.00244261
-9.8431e-05
0.00164744
0.000293241
0.000887605
0.000805309
-0.000246635
0.00133081
-0.00144817
0.00171453
-0.00236186
0.00193484
-0.00294658
0.00201286
-0.00321365
0.00198996
-0.00319721
0.00189559
-0.0029573
0.00176725
-0.00256009
0.00164188
-0.00207188
0.00155049
-0.00155255
0.00151455
-0.00106682
0.00152384
-0.000693719
0.00147659
-0.000506635
0.00133205
-0.000466587
0.00113347
-0.000453452
0.000955284
-0.000412553
0.000816234
-0.000355371
0.000723912
-0.000294557
0.000688178
-0.000234151
0.000708493
-0.000189409
0.000758554
-0.000177134
0.000825571
-0.000181404
0.000904085
-0.000176466
0.000988124
-0.000138617
0.00106311
-4.44511e-05
0.00111068
0.000112694
0.00112927
0.000315153
0.00112705
0.000562777
0.00115295
0.000883893
0.00126116
0.0012666
0.0014556
0.00178224
0.001957
0.0020513
0.00223707
0.00121672
0.00185468
0.000842253
0.000394819
-0.000661897
0.0118661
-0.000513961
0.0044786
0.000719595
0.00120905
0.00164485
0.000722184
0.00250327
2.91848e-05
0.00329565
-0.00103901
0.00378049
-0.00193302
0.00395707
-0.00253843
0.00387149
-0.002861
0.0035881
-0.00293026
0.00317832
-0.00278743
0.0027056
-0.00248458
0.00222746
-0.00208195
0.00179105
-0.00163546
0.0014254
-0.0011869
0.00114374
-0.000785158
0.000937894
-0.000487876
0.0007599
-0.000328642
0.000572198
-0.000278884
0.000385719
-0.000266973
0.000227659
-0.000254493
0.000110378
-0.00023809
3.78446e-05
-0.000222024
1.3332e-05
-0.000209638
3.23313e-05
-0.000208408
7.91821e-05
-0.000223985
0.000143373
-0.000245595
0.00022365
-0.000256743
0.000324697
-0.000239663
0.000452247
-0.000172002
0.000590473
-2.55312e-05
0.00072806
0.000177566
0.000879496
0.000411341
0.00108511
0.000678283
0.00140094
0.000950766
0.0019016
0.00128159
0.00265149
0.00130141
0.00323281
0.000635394
0.00330252
0.00077254
0.00376723
0.00277149
0.00962985
0.00355287
0.00369722
0.00417921
0.000582711
0.00518941
-0.000288016
0.00611583
-0.000897234
0.0065752
-0.00149838
0.00659153
-0.00194934
0.00623734
-0.00218424
0.00560246
-0.00222613
0.00478686
-0.00211466
0.00388919
-0.00188976
0.00299176
-0.00158715
0.002161
-0.00125119
0.0014436
-0.000918052
0.000858788
-0.000602088
0.000415249
-0.00034162
0.000105089
-0.000177716
-0.000113916
-0.000109636
-0.000286984
-0.000105817
-0.000431224
-0.000122733
-0.000546211
-0.000139506
-0.000630577
-0.000153724
-0.00068474
-0.000167861
-0.000709884
-0.000184494
-0.000711305
-0.000206987
-0.000699252
-0.000236038
-0.00067972
-0.000265127
-0.000651375
-0.000285088
-0.000604878
-0.00028616
-0.000520195
-0.000256685
-0.00036555
-0.000180176
-0.000158628
-2.9356e-05
8.24225e-05
0.000170291
0.000380641
0.000380064
0.000748456
0.000582951
0.00124403
0.000786019
0.00176362
0.000781818
0.00185486
0.000544151
0.00082889
0.00179851
0.00489201
0.0102228
0.0139162
0.0129809
0.001518
0.0123591
0.000333797
0.0116026
-0.000140741
0.0105589
-0.00045472
0.00924736
-0.0006378
0.00778059
-0.000717469
0.00626013
-0.000705664
0.00477333
-0.000627852
0.00339883
-0.000515263
0.00218587
-0.000374188
0.0011673
-0.00023262
0.000350972
-0.000101728
-0.000254898
3.78142e-06
-0.000647858
5.13408e-05
-0.000877933
5.23587e-05
-0.00102126
3.36892e-05
-0.00113105
3.97001e-06
-0.00122592
-2.78618e-05
-0.00130755
-5.78732e-05
-0.00137679
-8.44869e-05
-0.00143522
-0.000109427
-0.0014863
-0.000133417
-0.00153622
-0.000157065
-0.00159353
-0.000178728
-0.00166589
-0.000192771
-0.00176036
-0.000190613
-0.00188525
-0.000161272
-0.00205124
-9.06902e-05
-0.00226583
3.441e-05
-0.00251638
0.000221193
-0.00283233
0.000486244
-0.00330051
0.000848241
-0.00402234
0.00130478
-0.00506059
0.00182428
-0.00653471
0.00225594
-0.0083606
0.00237004
-0.00804647
0.00148437
-0.00282761
0.00437541
0.00337876
0.00335891
0.0013503
0.00365032
-0.000432157
0.0035876
-0.000392
0.00312874
-0.000178941
0.00244202
-3.07395e-05
0.00163962
9.67299e-05
0.000815
0.00019677
4.36576e-05
0.000256079
-0.000603865
0.000273334
-0.0010886
0.000252113
-0.00141692
0.000226592
-0.00160856
0.000195428
-0.00171313
0.000155907
-0.00177767
0.000116896
-0.00182695
8.29757e-05
-0.00187588
5.28951e-05
-0.00193056
2.68147e-05
-0.00199155
3.12135e-06
-0.00205618
-1.98543e-05
-0.00212358
-4.20348e-05
-0.00219676
-6.02333e-05
-0.00227964
-7.4186e-05
-0.0023756
-8.27683e-05
-0.00248556
-8.28124e-05
-0.00260701
-6.91605e-05
-0.0027326
-3.56779e-05
-0.00284944
2.615e-05
-0.00294882
0.000133792
-0.00303299
0.000305354
-0.00310879
0.000562045
-0.0031817
0.00092115
-0.00324994
0.00137302
-0.00325686
0.0018312
-0.00309601
0.00209509
-0.00211573
0.00138976
-0.00020498
-0.000426377
-0.00294822
-0.000788876
0.00425209
-0.000343172
0.000904592
-0.00102145
0.000246124
-0.0015419
0.000128442
-0.00189543
0.000174596
-0.0021583
0.00023213
-0.00234473
0.000283159
-0.00247326
0.000325302
-0.00255591
0.000338723
-0.00259847
0.000315892
-0.00261328
0.000266929
-0.00259992
0.000213226
-0.00256676
0.000162268
-0.00252839
0.000117539
-0.00249431
8.2819e-05
-0.00246872
5.73834e-05
-0.00245403
3.82081e-05
-0.00244999
2.27693e-05
-0.00245613
9.26118e-06
-0.00247046
-5.5184e-06
-0.00249367
-1.88242e-05
-0.0025254
-2.85037e-05
-0.00256531
-3.4282e-05
-0.00261239
-3.56873e-05
-0.00266403
-3.11653e-05
-0.00271528
-1.79172e-05
-0.0027586
7.64717e-06
-0.00278064
4.81888e-05
-0.00276053
0.000113681
-0.00267416
0.000218983
-0.00248995
0.000377836
-0.00218018
0.000611375
-0.00173918
0.000932024
-0.00113444
0.00122646
-2.97702e-05
0.000990416
0.00183699
-0.000477004
0.00346878
-0.00205816
0.000612103
-0.00788014
-0.0111392
-0.00683182
-0.00589909
-0.00563378
-0.00548992
-0.00530225
-0.0050587
-0.00476527
-0.00443044
-0.00408261
-0.00375771
-0.00348165
-0.00325905
-0.00308714
-0.0029597
-0.00286675
-0.00279902
-0.00275029
-0.00271687
-0.00269688
-0.00269165
-0.00269976
-0.00271763
-0.0027414
-0.00276674
-0.00278774
-0.00279572
-0.0027784
-0.00272084
-0.00259811
-0.00237042
-0.00198427
-0.00136498
-0.000425469
0.00080795
0.00180505
0.00133502
-0.000717011
)
;

boundaryField
{
    floor
    {
        type            calculated;
        value           nonuniform List<scalar> 
29
(
0
0
0
0
0
0
0
0
0
0
0
0
0
0
0
0
0
0
0
0
-5.03645e-06
-1.27491e-05
-1.92164e-05
-2.51069e-05
-2.06179e-06
-3.70646e-06
-1.06646e-05
-1.13667e-05
-1.02428e-05
)
;
    }
    ceiling
    {
        type            calculated;
        value           nonuniform List<scalar> 
43
(
-5.92981e-05
-5.70702e-05
-5.52833e-05
-2.81322e-05
-1.91867e-05
-1.5417e-05
-1.30727e-05
-1.14218e-05
-1.02759e-05
-9.52229e-06
-9.11015e-06
-9.00675e-06
-9.13519e-06
-9.37546e-06
-9.64205e-06
-9.89821e-06
-1.01336e-05
-1.03437e-05
-1.052e-05
-1.06512e-05
-1.07285e-05
-1.07479e-05
-1.07125e-05
-1.06329e-05
-1.05127e-05
-1.03548e-05
-1.01615e-05
-9.93408e-06
-9.67256e-06
-9.37616e-06
-9.05119e-06
-8.69898e-06
-8.32043e-06
-7.91537e-06
-7.48302e-06
-6.95649e-06
-6.68002e-06
-6.97748e-06
-6.12928e-06
-3.81514e-06
6.3139e-06
3.88698e-06
-8.44568e-05
)
;
    }
    sWall
    {
        type            calculated;
        value           uniform -0.000279568;
    }
    nWall
    {
        type            calculated;
        value           nonuniform List<scalar> 6(-5.42375e-05 -6.47278e-05 -6.98911e-05 -8.43697e-05 -9.15476e-05 -0.000101093);
    }
    sideWalls
    {
        type            empty;
        value           nonuniform 0();
    }
    glass1
    {
        type            calculated;
        value           nonuniform List<scalar> 9(-5.97978e-05 -0.00016065 -0.000245436 -0.000317625 -0.000378954 -0.000430717 -0.000477984 -0.000535277 -0.000599309);
    }
    glass2
    {
        type            calculated;
        value           nonuniform List<scalar> 2(-0.000295885 -0.000326849);
    }
    sun
    {
        type            calculated;
        value           uniform 0;
    }
    heatsource1
    {
        type            calculated;
        value           nonuniform List<scalar> 3(2.05041e-07 2.04926e-07 2.04945e-07);
    }
    heatsource2
    {
        type            calculated;
        value           nonuniform List<scalar> 4(5.14191e-08 5.15272e-08 0 0);
    }
    Table_master
    {
        type            calculated;
        value           nonuniform List<scalar> 9(-1.53793e-07 -1.53885e-07 -1.53917e-07 -1.53939e-07 -1.53954e-07 -1.53964e-07 -1.53969e-07 -1.53963e-07 -1.5393e-07);
    }
    Table_slave
    {
        type            calculated;
        value           nonuniform List<scalar> 9(1.53657e-07 1.53683e-07 1.53663e-07 1.53648e-07 1.53645e-07 1.53648e-07 1.53668e-07 1.53715e-07 1.53802e-07);
    }
    inlet
    {
        type            calculated;
        value           uniform -0.00623616;
    }
    outlet
    {
        type            calculated;
        value           nonuniform List<scalar> 2(0.00821901 0.00331612);
    }
}


// ************************************************************************* //
