/*--------------------------------*- C++ -*----------------------------------*=========                 |
  \      /  F ield         | OpenFOAM: The Open Source CFD Toolbox
   \    /   O peration     | Website:  https://openfoam.org
    \  /    A nd           | Version:  6
     \/     M anipulation  |
\*---------------------------------------------------------------------------*/
FoamFile
{
    version     2.0;
    format      ascii;
    class       volScalarField;
    location    "2500";
    object      PPD;
}
// * * * * * * * * * * * * * * * * * * * * * * * * * * * * * * * * * * * * * //

dimensions      [0 0 0 0 0 0 0];

internalField   nonuniform List<scalar> 
459
(
59.28536754888955
47.53778420486729
46.160107488211665
44.90874393649966
44.088633580403005
43.59147686122238
43.44907218135914
43.65322306944071
44.16748017285484
45.08120625860143
46.44960991016966
48.363968295398784
50.91676677985435
52.91631329706283
53.15048727015536
56.661917657920235
55.96038887669814
55.70040043186705
55.80440495615211
55.93439354295113
56.06436190673458
56.19175553363055
55.94180398537179
55.926229585017765
55.96757464636954
56.0406597763314
56.1379125026294
56.26481550810883
56.44016371898164
56.717101718962766
57.23846635262131
57.57006924141009
57.777407014113685
58.42466090351532
57.23196978017609
48.69782628703186
48.2319180269171
47.11030717467497
46.42745088713011
46.05858502510359
45.93449452140537
46.04173592496661
46.28599175238941
46.73339448346585
47.523071289381285
48.821093744220114
50.67620417605361
52.44807673313673
52.500094287364384
52.500094287364384
52.4740852077946
54.68237716151645
55.46634965477819
55.232249056230515
55.336299415869206
55.124431662580626
54.8923735965189
54.814936848063866
54.86967043629117
54.92962102386738
54.97197741444583
55.005842788739514
55.04438264249252
55.09091911076682
55.148574994660365
55.283651948296686
55.72109098636787
56.53205971038879
56.8436717931321
56.386584987923435
59.53080131700609
48.85573179969982
50.17445693423623
49.66117381239904
49.49735091412588
49.47843434393671
49.558517518357576
49.577090753549406
49.34628250707009
48.96998071618878
48.79362427098436
49.09479281725989
50.079594274415726
51.76078421238018
52.344049092368806
52.44807673313673
52.52610396140547
49.80766102228369
52.02716599735588
52.709603358238596
53.185594234503924
53.724003213212605
54.114449225067645
54.30844583271026
54.74849974463275
55.055962070497124
55.19870390552988
55.28765604620342
55.3205043865655
55.3482782107361
55.27806086626178
55.05304321552605
55.164679776049795
56.150127883301515
55.64762812406991
53.032964602530434
63.565949723709224
49.155289066481
51.68512755609414
52.238133925837715
53.215987418927604
54.06042767681634
54.73695098659432
54.463251077866715
53.05666016493697
51.05317669877016
49.409914702061116
48.547910204110664
48.72255560046813
49.8417655543378
51.547928404704635
52.500094287364384
51.72700406101938
49.51552123265349
49.46628258110423
50.950221612733124
52.371818550614634
53.53963325485611
54.54724325855409
55.30636584941785
55.57231064366946
55.527420624362854
55.529384605913165
55.614540280831335
55.70597341069733
55.89807689623692
56.26455316495973
56.916493878433165
58.118698138376836
57.762421770231626
56.98711731030931
54.564439052505136
50.61499684404949
68.24537322381553
50.27565019540886
53.18365205401137
54.76557010247049
57.367651783320916
60.319006929296506
61.589056613250634
59.10634480907262
55.221468597755596
51.45261067037811
48.79018392506998
47.31959586585685
47.134169755750946
48.04210783596087
49.60825528601573
51.07102038187529
51.43571259262745
51.269494002884805
51.74942725332515
53.072713100064746
54.67448757163937
56.158433396027846
57.4044077101689
58.21765737623182
58.683248064261974
59.0449383442901
59.11671520411072
59.14968782898408
59.110726608624674
59.02753925864613
59.007918223768904
59.04243701091946
59.120689055452225
58.34785522843974
56.92357991289639
53.62596819749663
53.259708345259
60.2816911677103
59.52966599916024
50.72046693451849
72.70000245137484
52.60794285564309
56.04376092653768
57.67476049090729
61.38449201758405
62.91349699997364
62.26532326302508
57.99131169041036
53.75972423220343
49.90259553012627
47.057036147993216
45.611855723058206
45.62237958532854
46.84453266055172
48.8661270609949
51.0777060756081
52.765660624682496
53.935278130903086
55.25365922056672
56.895591021322474
57.82922588851188
58.60569200092477
59.251434489241724
59.76704655363054
60.17884383365557
60.51294234177156
60.76962790127661
60.949139206705226
61.02602903209029
60.97477208365437
60.82093123072022
60.53862338615318
60.15312548955304
58.944599569392444
57.068968366721805
53.61481859591613
53.51155918881201
54.28978085428268
54.21813926760371
54.8880358455753
76.90225707633589
57.78336667996682
64.20004516761323
62.82377805567988
62.63838874575013
61.230069474878825
58.3373101540258
54.36512599002975
50.06664187103424
46.38083583103127
44.068086572533836
43.42089794441412
44.37311235840943
46.60744650591326
49.6716626938329
53.05076880503587
55.31028764110932
56.584006137598834
57.72558182513757
58.73494232407315
59.61246054203163
60.307396436059406
60.846578601738614
61.282134831466244
61.589056613250634
61.844474344582835
62.02307095590906
62.125052092178464
62.09956191265201
61.97206007819989
61.6912626296926
61.282134831466244
60.82093123072022
60.204559584437675
58.2192851308426
54.989106312592625
53.71443224757141
53.03648458329542
51.670429748763155
56.37335549527047
82.48239938469462
74.25047755810604
72.10921616232227
67.10728364099418
64.03726858209748
59.62645645442487
53.97508616797463
48.184631573655025
43.494041292965576
40.67202976251933
39.99679683824824
41.31293137403504
44.26167226892754
48.34598658072826
53.23680904722024
55.570378839164036
57.336700417159086
58.78662865611936
59.87005566772652
60.718313194668205
61.38449201758405
61.89551861902356
62.303386949825565
62.608703124172415
62.811958228975975
62.938872327525786
63.01497566083111
63.01497566083111
62.938872327525786
62.78656422507758
62.506988175265484
62.09956191265201
61.64016605078746
61.07727416724595
60.51294234177156
59.92154549462028
58.644224271939926
57.91381128600294
54.6545501617216
50.23174727947577
89.23829612903194
84.93221744079631
78.32247687572173
69.78986500834836
58.84760915049294
47.15120063075583
38.249244519744984
33.16780930378603
31.570254724922137
32.877852731397255
36.51117746255292
41.94292510764698
48.4405090671069
53.02038680423894
56.03836991654971
58.47639349299912
59.99876157660184
61.07727416724595
61.844474344582835
62.43066429605235
62.888117915534245
63.06856118436392
63.065319640738636
63.00723533549109
62.92033285021333
62.77502682809137
62.54713210436675
62.24754631247229
61.83862447572406
61.34904232877079
60.74339551992299
60.127932443022814
59.51771340078214
58.83740412039865
58.06657967914365
57.354257284362966
56.84421559754806
56.4738778127564
55.76930043088704
54.253570620854035
99.00025495697442
68.86027243528093
32.33802788181248
8.217225716830526
5.579974333465884
12.576845186690463
24.152024017345326
35.9755670333502
44.338789462604815
51.0707659157901
55.12819040239725
57.93284434519007
59.12014477622526
60.015671325972946
60.703551938216094
61.193506738350045
61.54360953937282
61.73264346027666
61.802757469709505
61.81329270754822
61.74947545381023
61.63264620144924
61.47731443382512
61.27380741964891
61.04462286069665
60.768980972500046
60.51167426019052
60.26452518525138
60.04688700457244
59.91463970623674
59.81662824209478
59.778544045751495
59.772266731364674
59.85792095229906
60.33877153695825
61.975736846152195
67.82628566597333
59.69192234886535
92.77089843872777
26.250461896303435
5.0347875334125405
11.892043554269648
22.0767852133865
30.61218795894395
38.02443581707751
44.175261688050696
49.0906965235012
52.82941067476858
55.39590279524861
57.15832024639328
58.44099041306346
59.34466574249961
59.992831636418515
60.42712480936786
60.70008721327696
60.89866988289332
61.00824742214207
61.06956349912864
61.10176718479613
61.12133215341125
61.099087297553126
61.06036057197673
61.006648932712764
60.94347025360283
60.856288488517606
60.84600092019238
60.86212468992646
61.00330773678672
61.37075247962156
61.93554573689574
62.5801582741805
63.19448507641755
63.95801898871516
67.13997953876691
61.79278539147886
66.43816044538441
20.507016267183673
25.978196135286566
21.221811607785497
7.894310096903908
21.598442629501093
30.640503065073517
37.01410715193979
42.256987517420086
46.64717961401088
50.28035226639222
53.263896610144485
55.54918378105002
57.21534076380078
58.3743863315151
59.13356093259621
59.61275317310368
59.840866717659146
59.96168851969449
59.980870910701576
59.979919988530874
59.950975830618546
59.95769774103243
59.97007288614731
60.002315279560975
60.02663625084772
60.07111951381789
60.167543538610346
60.27271014337773
60.45881121281126
60.69381401764869
61.061576512342306
61.63578387928599
62.66337805374729
64.44953868691657
66.02797525829494
66.27600950378402
66.5235254556286
62.62564970455294
62.85580018846477
57.620216594338785
)
;

boundaryField
{
    ".*"
    {
        type            zeroGradient;
    }
}


// ************************************************************************* //
