/*--------------------------------*- C++ -*----------------------------------*\
  =========                 |
  \\      /  F ield         | OpenFOAM: The Open Source CFD Toolbox
   \\    /   O peration     | Website:  https://openfoam.org
    \\  /    A nd           | Version:  6
     \\/     M anipulation  |
\*---------------------------------------------------------------------------*/
FoamFile
{
    version     2.0;
    format      ascii;
    class       volScalarField;
    location    "10";
    object      alphat;
}
// * * * * * * * * * * * * * * * * * * * * * * * * * * * * * * * * * * * * * //

dimensions      [1 -1 -1 0 0 0 0];

internalField   nonuniform List<scalar> 
459
(
0.00226437
0.00259861
0.00266121
0.00275714
0.00280868
0.00280736
0.00275413
0.00266821
0.00257763
0.00250148
0.00244305
0.00239317
0.00233442
0.00223981
0.00206995
0.00136057
0.00180448
0.00199939
0.00203388
0.00196425
0.00178288
0.00150096
0.00136804
0.0013289
0.00131981
0.00131821
0.00131945
0.00132669
0.00135521
0.00144557
0.0016429
0.00171138
0.00159447
0.00129692
0.00293242
0.0111726
0.0130099
0.0143201
0.0156079
0.0168606
0.0178364
0.0183619
0.0184481
0.018229
0.0178356
0.0173065
0.0165251
0.0150448
0.0113723
0.00238283
0.00158329
0.00185157
0.0088435
0.0117285
0.0123675
0.0114961
0.00908806
0.00522842
0.00397986
0.00357665
0.00347069
0.00344925
0.00346036
0.00352981
0.00378527
0.00457086
0.00709478
0.00794227
0.00657815
0.00159386
0.00336667
0.0144113
0.0159648
0.0174282
0.0195183
0.0221674
0.0248724
0.0270514
0.0283808
0.0288734
0.0287148
0.0280451
0.026802
0.0245908
0.0204783
0.0129506
0.00251654
0.00248802
0.0132974
0.0181568
0.0190883
0.0172237
0.0120967
0.00203512
0.00144149
0.0013362
0.00132113
0.0013193
0.00132132
0.00133381
0.00140904
0.00184053
0.00916947
0.0113489
0.0092834
0.00188401
0.00361494
0.0148408
0.0150009
0.0157261
0.0180648
0.0216004
0.0258622
0.0299521
0.033075
0.0348855
0.0354701
0.035073
0.0338143
0.0315414
0.0277806
0.0217885
0.0128992
0.00295125
0.0127621
0.0203751
0.0239672
0.0243813
0.0217079
0.0145372
0.00268598
0.002398
0.00234097
0.00232302
0.00232021
0.00232828
0.00234869
0.00239371
0.00257426
0.0111727
0.0147055
0.0120917
0.0024601
0.00359827
0.0121789
0.0116835
0.0126794
0.0148359
0.0183244
0.0233708
0.029117
0.0342308
0.0377184
0.039362
0.0395007
0.0385097
0.0365468
0.0335446
0.0293792
0.0242372
0.019448
0.0235408
0.0272471
0.0292078
0.0292175
0.0271954
0.0230068
0.0173612
0.01628
0.0158703
0.0156821
0.0156111
0.0156202
0.0156948
0.0158508
0.0163006
0.0193434
0.0201213
0.0177219
0.0110768
0.00288366
0.00248558
0.00205065
0.00384418
0.00514497
0.00563537
0.00648306
0.00855579
0.0128172
0.019116
0.0264191
0.0333925
0.0385099
0.0411771
0.0418496
0.041194
0.0396476
0.037412
0.0346594
0.0318054
0.0298448
0.0308333
0.0322928
0.0331197
0.0329002
0.0315373
0.0291913
0.0265664
0.0253068
0.0246711
0.0243363
0.0241713
0.0241135
0.024125
0.024185
0.0243253
0.0246775
0.023812
0.0212917
0.0172832
0.0124968
0.00895702
0.00240854
0.00522446
0.00639125
0.0068309
0.00689598
0.00807679
0.0116798
0.0179633
0.0256707
0.0331189
0.0386201
0.0415239
0.042356
0.0418992
0.0406995
0.0390596
0.0372179
0.0355095
0.0344357
0.0344761
0.0349038
0.0351165
0.0347968
0.0338651
0.0324622
0.0309798
0.0299519
0.0293005
0.0288991
0.0286575
0.0285096
0.0283899
0.0282056
0.0277911
0.0268198
0.0246169
0.0210493
0.0166194
0.0124506
0.00965426
0.00253506
0.00584941
0.00867285
0.0149059
0.0116353
0.0120772
0.0155862
0.02141
0.0280954
0.0341335
0.0383513
0.0404681
0.0409666
0.0404983
0.0395137
0.0382776
0.0369906
0.035867
0.0351326
0.0348991
0.034902
0.034835
0.0344996
0.0338378
0.0329314
0.0319781
0.0311953
0.0306203
0.0302187
0.0299398
0.0297256
0.0294943
0.0290913
0.0282011
0.0262861
0.0228263
0.0179516
0.012515
0.0081948
0.0062585
0.00248531
0.00663022
0.00826388
0.0192451
0.0157857
0.0153256
0.019132
0.0243301
0.0295572
0.0336734
0.0361693
0.037187
0.0371884
0.0366168
0.0357641
0.0348074
0.0338762
0.0330891
0.0325463
0.0322659
0.0321264
0.0319675
0.0316721
0.0312005
0.0305931
0.0299492
0.029373
0.0289082
0.028553
0.028283
0.0280586
0.0278094
0.0273725
0.0263524
0.0240074
0.0197036
0.0137606
0.00784001
0.00448232
0.00336594
0.00235439
0.0242808
0.0178794
0.0147883
0.0198017
0.0242455
0.0275769
0.0296322
0.0305279
0.0306045
0.0302093
0.0295869
0.0288801
0.0281717
0.0275177
0.026975
0.0265958
0.026367
0.0262218
0.0260744
0.0258588
0.0255493
0.0251639
0.0247506
0.0243616
0.024027
0.0237537
0.0235345
0.0233557
0.0231931
0.0229716
0.0224487
0.0211851
0.0188614
0.0154449
0.0116299
0.0086881
0.00773848
0.00230754
0.00705724
0.00977731
0.0127342
0.0164068
0.0185366
0.0195677
0.019836
0.0196603
0.0192785
0.0188278
0.0183734
0.0179437
0.0175483
0.0171675
0.0168797
0.0166854
0.0165658
0.0164867
0.0164093
0.0163039
0.0161582
0.0159774
0.0157793
0.0155838
0.0154041
0.0152448
0.0151071
0.0149978
0.0149378
0.0149531
0.0149888
0.0148425
0.0143714
0.0132185
0.0114291
0.00971753
0.0077926
0.00229901
0.00348536
0.00411855
0.00483105
0.00302149
0.00286187
0.00301249
0.00304223
0.00297624
0.00287871
0.00278166
0.00269702
0.00262677
0.00256963
0.00252381
0.00248785
0.0024631
0.00244559
0.00243392
0.0024267
0.00242182
0.00241688
0.00241007
0.00240064
0.00238898
0.00237633
0.00236411
0.00235338
0.00234459
0.00233778
0.00233302
0.00233091
0.00233346
0.00235194
0.00241192
0.00251106
0.00260268
0.00260671
0.00249129
0.00228563
0.00202481
)
;

boundaryField
{
    floor
    {
        type            compressible::alphatWallFunction;
        Prt             0.85;
        value           nonuniform List<scalar> 
29
(
0.000286524
0.00019241
0.000251834
0.000277401
0.000281901
0.00027282
0.000248998
0.000211448
0.000193503
0.000188189
0.000186953
0.000186736
0.000186905
0.000187891
0.000191774
0.000204018
0.00023047
0.000239558
0.000223977
0.000183744
0.000183742
0.000223905
0.000262308
0.000336757
0.000286521
0.000192407
0.000258046
0.00034037
0.000398851
)
;
    }
    ceiling
    {
        type            compressible::alphatWallFunction;
        Prt             0.85;
        value           nonuniform List<scalar> 
43
(
0.000464936
0.000542193
0.000627758
0.000407625
0.000387449
0.000406257
0.000409987
0.00040179
0.000389636
0.000377496
0.000366865
0.000358009
0.000350783
0.000344973
0.000340405
0.000337253
0.000335023
0.000333537
0.000332618
0.000331997
0.000331369
0.0003305
0.000329296
0.000327807
0.000326189
0.000324627
0.000323255
0.000322131
0.000321262
0.000320656
0.000320384
0.000320703
0.000323038
0.000330645
0.000343201
0.000354811
0.000355364
0.000340725
0.000314369
0.00028059
0.000837669
0.00102411
0.000887311
)
;
    }
    sWall
    {
        type            compressible::alphatWallFunction;
        Prt             0.85;
        value           uniform 0.000463714;
    }
    nWall
    {
        type            compressible::alphatWallFunction;
        Prt             0.85;
        value           nonuniform List<scalar> 6(0.00028356 0.000329716 0.000345855 0.000316828 0.000315689 0.000280183);
    }
    sideWalls
    {
        type            empty;
    }
    glass1
    {
        type            compressible::alphatWallFunction;
        Prt             0.85;
        value           nonuniform List<scalar> 9(0.000304811 0.000388675 0.000442246 0.000472704 0.000470865 0.000499984 0.000663866 0.000736583 0.000826568);
    }
    glass2
    {
        type            compressible::alphatWallFunction;
        Prt             0.85;
        value           nonuniform List<scalar> 2(0.000337035 0.000320439);
    }
    sun
    {
        type            compressible::alphatWallFunction;
        Prt             0.85;
        value           nonuniform List<scalar> 
14
(
0.000311601
0.000354357
0.000362355
0.000374421
0.000380849
0.000380609
0.000373839
0.000362966
0.000351514
0.000341885
0.00033449
0.000328158
0.00032066
0.000308509
)
;
    }
    heatsource1
    {
        type            compressible::alphatWallFunction;
        Prt             0.85;
        value           nonuniform List<scalar> 3(0.000390503 0.000340097 0.000284073);
    }
    heatsource2
    {
        type            compressible::alphatWallFunction;
        Prt             0.85;
        value           nonuniform List<scalar> 4(0.000327128 0.000222639 0.000222636 0.000344194);
    }
    Table_master
    {
        type            compressible::alphatWallFunction;
        Prt             0.85;
        value           nonuniform List<scalar> 9(0.000282289 0.000203652 0.000189393 0.000187345 0.000187096 0.00018737 0.000189073 0.000199295 0.000256894);
    }
    Table_slave
    {
        type            compressible::alphatWallFunction;
        Prt             0.85;
        value           nonuniform List<scalar> 9(0.000365759 0.000329118 0.000321807 0.000319499 0.000319134 0.000320162 0.000322768 0.000328527 0.000351577);
    }
    inlet
    {
        type            fixedValue;
        value           uniform 1.94e-05;
    }
    outlet
    {
        type            zeroGradient;
    }
}


// ************************************************************************* //
