/*--------------------------------*- C++ -*----------------------------------*\
  =========                 |
  \\      /  F ield         | OpenFOAM: The Open Source CFD Toolbox
   \\    /   O peration     | Website:  https://openfoam.org
    \\  /    A nd           | Version:  6
     \\/     M anipulation  |
\*---------------------------------------------------------------------------*/
FoamFile
{
    version     2.0;
    format      ascii;
    class       volScalarField;
    location    "10";
    object      nut;
}
// * * * * * * * * * * * * * * * * * * * * * * * * * * * * * * * * * * * * * //

dimensions      [0 2 -1 0 0 0 0];

internalField   nonuniform List<scalar> 
459
(
0.00194229
0.00222677
0.00228016
0.00236222
0.00240618
0.00240483
0.00235904
0.00228531
0.00220765
0.00214239
0.00209233
0.0020496
0.00199929
0.00191828
0.00177289
0.00116538
0.00154547
0.00171237
0.0017419
0.00168227
0.00152695
0.00128551
0.00117167
0.00113815
0.00113036
0.00112899
0.00113005
0.00113625
0.00116068
0.00123807
0.00140706
0.00146571
0.00136561
0.00111086
0.00251688
0.00957829
0.0111516
0.0122738
0.0133757
0.0144467
0.0152803
0.0157284
0.015801
0.0156126
0.0152752
0.0148219
0.0141526
0.0128848
0.00973961
0.0020407
0.00135594
0.00158585
0.00757396
0.0100446
0.0105919
0.00984556
0.00778326
0.00447776
0.00340846
0.00306314
0.00297239
0.00295403
0.00296355
0.00302302
0.0032418
0.00391461
0.00607617
0.00680202
0.00563383
0.00136513
0.00289148
0.0123613
0.013692
0.0149458
0.0167345
0.0190003
0.0213128
0.023175
0.0243105
0.0247304
0.0245935
0.0240194
0.0229545
0.0210606
0.0175384
0.0110913
0.00215525
0.00213092
0.0113885
0.0155502
0.0163479
0.014751
0.01036
0.00174295
0.00123454
0.00114437
0.00113146
0.00112989
0.00113162
0.00114232
0.00120675
0.00157629
0.00785309
0.00971971
0.00795082
0.00161365
0.00310696
0.0127383
0.0128757
0.0134969
0.0154987
0.0185235
0.0221682
0.025665
0.0283346
0.0298818
0.0303805
0.0300393
0.0289607
0.0270139
0.0237928
0.0186608
0.0110476
0.00252766
0.0109302
0.0174503
0.0205268
0.0208814
0.0185918
0.0124504
0.00230039
0.00205375
0.00200491
0.00198953
0.00198713
0.00199404
0.00201152
0.00205009
0.00220473
0.00956896
0.0125948
0.0103563
0.00210709
0.00309551
0.0104639
0.0100386
0.0108924
0.0127396
0.0157253
0.0200421
0.0249559
0.0293287
0.0323107
0.0337153
0.0338325
0.0329829
0.0313014
0.02873
0.0251624
0.0207585
0.0166566
0.020162
0.0233364
0.0250156
0.0250238
0.0232919
0.0197045
0.0148692
0.0139432
0.0135924
0.0134311
0.0133703
0.0133781
0.0134421
0.0135757
0.0139611
0.0165674
0.017234
0.0151792
0.00948774
0.00247001
0.00212904
0.0017566
0.00330886
0.00442551
0.00484656
0.00557455
0.00735401
0.0110087
0.0164027
0.0226501
0.0286141
0.0329907
0.0352713
0.0358453
0.0352828
0.033958
0.032043
0.0296854
0.0272409
0.0255618
0.0264083
0.0276584
0.0283666
0.0281786
0.0270112
0.0250019
0.0227537
0.0216749
0.0211304
0.0208436
0.0207023
0.0206528
0.0206627
0.0207143
0.0208347
0.0211368
0.0203962
0.0182383
0.0148055
0.0107056
0.00767307
0.00206331
0.00448683
0.00548442
0.00586224
0.00592007
0.0069353
0.010027
0.0154112
0.0220079
0.0283799
0.0330857
0.035569
0.0362798
0.0358876
0.0348596
0.0334549
0.0318774
0.0304142
0.0294944
0.029529
0.0298953
0.0300775
0.0298037
0.0290057
0.027804
0.0265343
0.0256539
0.025096
0.0247522
0.0245453
0.0244186
0.0243163
0.0241586
0.023804
0.0229729
0.0210872
0.0180327
0.0142393
0.0106682
0.0082718
0.00217195
0.00501827
0.00742793
0.0127735
0.00998144
0.0103647
0.0133734
0.0183604
0.0240812
0.0292468
0.0328546
0.0346648
0.0350902
0.0346884
0.0338447
0.0327858
0.0316835
0.0307211
0.030092
0.029892
0.0298944
0.0298371
0.0295497
0.0289829
0.0282065
0.0273901
0.0267196
0.026227
0.0258831
0.0256442
0.0254608
0.0252628
0.024918
0.0241561
0.022517
0.0195552
0.0153814
0.0107251
0.00702372
0.00536448
0.00213077
0.00568296
0.00707293
0.0164697
0.013532
0.0131442
0.0164063
0.0208562
0.0253287
0.0288498
0.0309844
0.0318541
0.0318544
0.0313643
0.0306337
0.0298142
0.0290166
0.0283424
0.0278774
0.0276373
0.0275177
0.0273817
0.0271286
0.0267246
0.0262044
0.0256528
0.0251593
0.0247611
0.0244569
0.0242257
0.0240335
0.0238202
0.0234463
0.0225732
0.0205659
0.0168815
0.0117927
0.00672067
0.00384303
0.00288609
0.00201896
0.0207372
0.015312
0.0126742
0.0169719
0.0207771
0.0236278
0.0253857
0.0261511
0.0262157
0.0258767
0.0253433
0.0247378
0.024131
0.0235708
0.023106
0.0227811
0.0225851
0.0224607
0.0223345
0.0221498
0.0218847
0.0215546
0.0212005
0.0208673
0.0205807
0.0203466
0.0201589
0.0200058
0.0198666
0.0196771
0.0192296
0.0181481
0.0161591
0.0132342
0.00996707
0.00744665
0.00663183
0.00197738
0.006035
0.00837286
0.0109093
0.0140573
0.0158815
0.0167637
0.0169925
0.0168414
0.0165141
0.0161278
0.0157386
0.0153705
0.0150317
0.0147056
0.014459
0.0142926
0.0141902
0.0141224
0.0140561
0.0139658
0.013841
0.0136861
0.0135164
0.013349
0.013195
0.0130586
0.0129406
0.012847
0.0127957
0.0128088
0.0128396
0.0127146
0.0123118
0.0113252
0.00979322
0.00832698
0.00667707
0.00196993
0.00298168
0.00352324
0.00413327
0.00258763
0.00245152
0.00258071
0.00260619
0.00254961
0.00246602
0.00238286
0.00231035
0.00225017
0.00220122
0.00216197
0.00213117
0.00210997
0.00209497
0.00208497
0.00207879
0.00207461
0.00207038
0.00206454
0.00205646
0.00204648
0.00203564
0.00202518
0.00201598
0.00200845
0.00200262
0.00199854
0.00199673
0.00199892
0.00201476
0.00206616
0.00215114
0.00222974
0.00223331
0.00213447
0.00195824
0.00173493
)
;

boundaryField
{
    floor
    {
        type            nutkWallFunction;
        Cmu             0.09;
        kappa           0.41;
        E               9.8;
        value           nonuniform List<scalar> 
29
(
0.000208766
0.000140246
0.000183504
0.000202115
0.000205391
0.000198779
0.000181436
0.000154097
0.000141031
0.000137161
0.000136261
0.000136103
0.000136226
0.000136945
0.000139771
0.000148687
0.000167946
0.000174563
0.000163221
0.000133936
0.000133936
0.000163176
0.000191139
0.000245349
0.000208767
0.000140246
0.000188034
0.00024797
0.000290544
)
;
    }
    ceiling
    {
        type            nutkWallFunction;
        Cmu             0.09;
        kappa           0.41;
        E               9.8;
        value           nonuniform List<scalar> 
43
(
0.000338192
0.000394358
0.000456633
0.000296817
0.000282196
0.000295908
0.000298625
0.00029265
0.000283795
0.000274953
0.000267211
0.000260762
0.0002555
0.00025127
0.000247944
0.000245649
0.000244025
0.000242943
0.000242274
0.000241821
0.000241364
0.000240732
0.000239855
0.00023877
0.000237592
0.000236455
0.000235456
0.000234638
0.000234005
0.000233563
0.000233366
0.000233598
0.0002353
0.000240841
0.00024999
0.000258456
0.000258871
0.000248215
0.000229018
0.000204433
0.000610376
0.000745153
0.000645081
)
;
    }
    sWall
    {
        type            nutkWallFunction;
        Cmu             0.09;
        kappa           0.41;
        E               9.8;
        value           uniform 0.000338268;
    }
    nWall
    {
        type            nutkWallFunction;
        Cmu             0.09;
        kappa           0.41;
        E               9.8;
        value           nonuniform List<scalar> 6(0.00020686 0.000240491 0.000252274 0.000231169 0.000230325 0.000204453);
    }
    sideWalls
    {
        type            empty;
    }
    glass1
    {
        type            nutkWallFunction;
        Cmu             0.09;
        kappa           0.41;
        E               9.8;
        value           nonuniform List<scalar> 9(0.000227688 0.000289731 0.000329359 0.000351952 0.000350772 0.00037237 0.000492479 0.000545533 0.000611157);
    }
    glass2
    {
        type            nutkWallFunction;
        Cmu             0.09;
        kappa           0.41;
        E               9.8;
        value           nonuniform List<scalar> 2(0.000247951 0.000235814);
    }
    sun
    {
        type            nutkWallFunction;
        Cmu             0.09;
        kappa           0.41;
        E               9.8;
        value           nonuniform List<scalar> 
14
(
0.00022734
0.000258273
0.000264071
0.000272845
0.000277506
0.000277307
0.000272356
0.000264424
0.000256078
0.000249064
0.000243678
0.000239067
0.000233608
0.000224764
)
;
    }
    heatsource1
    {
        type            nutkWallFunction;
        Cmu             0.09;
        kappa           0.41;
        E               9.8;
        value           nonuniform List<scalar> 3(0.000284311 0.000247612 0.000206836);
    }
    heatsource2
    {
        type            nutkWallFunction;
        Cmu             0.09;
        kappa           0.41;
        E               9.8;
        value           nonuniform List<scalar> 4(0.000238132 0.000162068 0.000162068 0.000250562);
    }
    Table_master
    {
        type            nutkWallFunction;
        Cmu             0.09;
        kappa           0.41;
        E               9.8;
        value           nonuniform List<scalar> 9(0.000205499 0.000148254 0.000137874 0.000136383 0.000136201 0.000136401 0.00013764 0.000145082 0.000187013);
    }
    Table_slave
    {
        type            nutkWallFunction;
        Cmu             0.09;
        kappa           0.41;
        E               9.8;
        value           nonuniform List<scalar> 9(0.000266262 0.000239588 0.000234265 0.000232585 0.000232319 0.000233068 0.000234965 0.000239158 0.00025594);
    }
    inlet
    {
        type            calculated;
        value           uniform 3.3541e-05;
    }
    outlet
    {
        type            calculated;
        value           nonuniform List<scalar> 2(0.00298168 0.00352324);
    }
}


// ************************************************************************* //
