/*--------------------------------*- C++ -*----------------------------------*\
  =========                 |
  \\      /  F ield         | OpenFOAM: The Open Source CFD Toolbox
   \\    /   O peration     | Website:  https://openfoam.org
    \\  /    A nd           | Version:  6
     \\/     M anipulation  |
\*---------------------------------------------------------------------------*/
FoamFile
{
    version     2.0;
    format      ascii;
    class       surfaceScalarField;
    location    "10";
    object      phi;
}
// * * * * * * * * * * * * * * * * * * * * * * * * * * * * * * * * * * * * * //

dimensions      [1 0 -1 0 0 0 0];

internalField   nonuniform List<scalar> 
852
(
-0.00273588
0.00278909
-0.00341307
0.00067737
-0.00333596
-7.68824e-05
-0.00292433
-0.000411348
-0.00232569
-0.000598333
-0.00168427
-0.000641124
-0.00112192
-0.00056212
-0.000702765
-0.000419002
-0.000429483
-0.00027319
-0.000269568
-0.00015986
-0.000182468
-8.70656e-05
-0.000133991
-4.84503e-05
-9.99744e-05
-3.39922e-05
-6.26406e-05
-3.73074e-05
-6.06868e-05
-9.75475e-05
0.000100267
-6.49863e-05
-3.25259e-05
-1.72317e-05
-4.77281e-05
1.05735e-05
-2.77811e-05
2.96954e-05
-1.90977e-05
3.98462e-05
-1.01244e-05
3.32433e-05
6.63419e-06
3.00477e-05
3.22977e-06
2.93561e-05
7.26916e-07
2.8875e-05
5.16754e-07
2.7724e-05
1.18669e-06
2.49633e-05
2.79635e-06
1.94617e-05
5.53707e-06
1.22313e-05
7.26531e-06
1.58515e-05
-3.58685e-06
7.15754e-05
-5.56944e-05
0.000158235
-8.66297e-05
0.000190681
-3.24085e-05
0.000193496
-0.0019134
0.00484383
-0.00260494
0.00136916
-0.00265658
-2.49069e-05
-0.00236113
-0.000706339
-0.0019144
-0.00104453
-0.00142834
-0.00112665
-0.000988879
-0.00100115
-0.000646213
-0.000761356
-0.000409179
-0.000510028
-0.000260542
-0.000308384
-0.000174397
-0.000173148
-0.000126596
-9.62147e-05
-9.995e-05
-6.06155e-05
-8.86406e-05
-4.86001e-05
-8.92573e-05
-6.00565e-05
-2.76983e-05
-6.16031e-05
-2.77472e-05
8.4005e-05
2.26035e-05
3.95766e-05
1.19245e-05
5.87811e-06
-1.40144e-05
9.89397e-07
-2.28797e-05
1.25084e-05
-3.06049e-05
2.77913e-05
-2.53955e-05
2.81586e-05
6.27938e-06
2.82895e-05
3.11075e-06
2.82455e-05
7.82192e-07
2.83192e-05
4.54147e-07
2.83944e-05
1.12249e-06
2.83354e-05
2.86651e-06
2.77925e-05
6.09132e-06
2.62465e-05
8.82323e-06
2.29847e-05
-3.12005e-07
4.39673e-05
-7.66619e-05
3.43426e-05
-7.69864e-05
-1.57241e-06
3.53164e-06
0.000199055
-0.00140818
0.00646975
-0.00190867
0.00186995
-0.00184052
-9.26005e-05
-0.00155504
-0.000991185
-0.00123201
-0.00136679
-0.000901102
-0.00145673
-0.0006071
-0.00129445
-0.000387955
-0.000980006
-0.000246027
-0.000651643
-0.00016316
-0.000391069
-0.000118961
-0.000217246
-9.70857e-05
-0.000118036
-8.54481e-05
-7.22237e-05
-7.36421e-05
-6.03889e-05
-6.12014e-05
-7.24863e-05
-3.50429e-05
-8.77547e-05
-6.27854e-05
5.05523e-06
2.58715e-05
-1.03785e-05
2.73709e-05
-3.31425e-05
8.7592e-06
-4.01607e-05
-1.58533e-05
-3.04515e-05
-4.03069e-05
1.85702e-05
-7.44105e-05
2.50107e-05
2.82814e-05
2.92228e-05
2.9836e-05
3.11176e-05
3.41432e-05
4.03938e-05
4.93769e-05
4.92274e-05
0.000124803
-0.000152224
9.13247e-05
-4.34887e-05
-1.58884e-05
0.000110769
0.000193571
-0.000970716
0.00772973
-0.00084301
0.00174262
-0.000339018
-0.000596063
-9.53905e-05
-0.00123407
-4.91192e-05
-0.00141201
-1.10754e-05
-0.00149357
3.69147e-05
-0.00134138
5.22594e-05
-0.000994604
3.45404e-05
-0.000633461
3.58611e-06
-0.00035985
-2.72067e-05
-0.00018631
-5.27876e-05
-9.23801e-05
-7.19699e-05
-5.30027e-05
-8.532e-05
-4.70185e-05
-9.90458e-05
-5.87492e-05
-0.000118037
-6.87568e-05
-0.000136208
-4.46078e-05
-0.00015297
2.52806e-05
-0.000128157
1.06681e-06
-0.000112392
1.16132e-05
-0.000105548
1.92119e-06
-0.000108111
-1.32849e-05
-0.000121336
-2.70769e-05
-0.000165527
-3.02166e-05
-0.000154654
-1.10253e-05
-0.000143503
-1.13051e-05
-0.000126725
-1.69325e-05
-0.000100797
-2.60815e-05
-6.0739e-05
-4.02121e-05
8.6858e-08
-6.09787e-05
8.99148e-05
-8.99791e-05
0.000216148
-0.000126381
0.000373339
-0.000157332
0.000396317
-0.000175179
0.000447675
-9.48176e-05
0.000454362
0.000104117
0.000659675
0.00136132
0.00673226
0.00248945
0.00061521
0.00313259
-0.00123892
0.0027831
-0.000884063
0.0020926
-0.000720417
0.00148997
-0.000889323
0.00102925
-0.000879065
0.000668259
-0.000632484
0.000395092
-0.000359622
0.000202868
-0.000167258
7.48918e-05
-5.81431e-05
-8.13711e-06
-9.25456e-06
-6.22806e-05
1.18846e-06
-9.98844e-05
-9.39097e-06
-0.000131452
-2.71695e-05
-0.000162508
-3.76938e-05
-0.00018162
-2.54906e-05
-0.000167997
1.1663e-05
-0.000163375
-3.55039e-06
-0.000151296
-4.61605e-07
-0.000144607
-4.76291e-06
-0.000145273
-1.26152e-05
-0.000152832
-1.95154e-05
-0.000161786
-2.126e-05
-0.000155799
-1.70107e-05
-0.000144373
-2.27294e-05
-0.00012717
-3.41348e-05
-0.000101263
-5.19863e-05
-6.25738e-05
-7.88988e-05
-5.47173e-06
-0.000118076
7.7191e-05
-0.000172634
0.000193688
-0.000242864
0.000352581
-0.0003162
0.000551093
-0.000373652
0.000846672
-0.000390342
0.00129403
-0.000343178
0.00219688
-0.000243113
0.00238009
-0.000183347
0.00183243
0.000547524
0.0018714
0.00949309
-0.0023373
0.0119219
-0.00181438
0.0108066
-0.000124199
0.00872635
0.00119609
0.00639973
0.00160704
0.00419912
0.00131327
0.00249437
0.000827951
0.00139016
0.000473343
0.000737995
0.000293433
0.000361013
0.000210179
0.000141895
0.000161201
1.2989e-05
0.000119763
-6.4599e-05
7.88298e-05
-0.000114057
4.0093e-05
-0.00014936
8.14569e-06
-0.000176202
-1.08449e-05
-0.000189646
-1.20419e-05
-0.000177352
-6.26848e-07
-0.000174296
-6.60272e-06
-0.000167731
-7.02351e-06
-0.000162957
-9.53287e-06
-0.000161792
-1.37779e-05
-0.000163353
-1.79514e-05
-0.000163883
-2.07282e-05
-0.000157639
-2.32527e-05
-0.000147986
-3.23809e-05
-0.000133981
-4.81375e-05
-0.000113712
-7.2253e-05
-8.46357e-05
-0.000107971
-4.33277e-05
-0.000159377
1.48995e-05
-0.000230849
9.74697e-05
-0.000325412
0.000222074
-0.000440765
0.000420971
-0.000572484
0.000748641
-0.000717917
0.00125723
-0.000851649
0.00188914
-0.00087489
0.00215546
-0.000449569
0.00159989
0.00110319
0.00351325
0.00749322
-0.00937555
0.00949742
-0.00381946
0.00890289
0.000469362
0.00726586
0.00283243
0.00552454
0.00334831
0.00379132
0.00304738
0.0023352
0.00228556
0.00132063
0.00148922
0.000692044
0.000922825
0.000321156
0.000581501
0.00010561
0.000376968
-1.9207e-05
0.000244689
-9.19931e-05
0.000151668
-0.000135789
8.39143e-05
-0.000163881
3.62492e-05
-0.000181921
7.20246e-06
-0.00018915
-4.80875e-06
-0.000183299
-6.47488e-06
-0.000179515
-1.03833e-05
-0.000174775
-1.17604e-05
-0.000170936
-1.33685e-05
-0.000168881
-1.58303e-05
-0.000167988
-1.88417e-05
-0.000166346
-2.23682e-05
-0.000161779
-2.78182e-05
-0.000155487
-3.86701e-05
-0.000147312
-5.63103e-05
-0.000136758
-8.28035e-05
-0.000123535
-0.000121189
-0.000107819
-0.000175084
-9.03325e-05
-0.000248318
-7.09639e-05
-0.000344749
-4.21581e-05
-0.000469513
2.01965e-05
-0.000634739
0.000160831
-0.000858394
0.000436146
-0.00112676
0.000900799
-0.00133934
0.00151617
-0.00106481
0.00157454
0.0010449
0.00513498
-0.00133581
-0.00753217
-0.000577471
-0.00457783
0.00105891
-0.00116783
0.00127452
0.00261648
0.00129127
0.00333181
0.0011157
0.00322393
0.000837419
0.00256509
0.000531988
0.00179565
0.000271712
0.00118373
8.55469e-05
0.000768017
-3.33791e-05
0.00049608
-0.000103891
0.000315294
-0.000143944
0.000191766
-0.000166546
0.000106538
-0.000179684
4.93977e-05
-0.000186843
1.43678e-05
-0.000188259
-3.38817e-06
-0.000184285
-1.04448e-05
-0.000180368
-1.42977e-05
-0.000176492
-1.56332e-05
-0.00017338
-1.6477e-05
-0.000171363
-1.78451e-05
-0.000170096
-2.01051e-05
-0.000168756
-2.37058e-05
-0.00016672
-2.9852e-05
-0.000164774
-4.06135e-05
-0.000163619
-5.74617e-05
-0.000164334
-8.20842e-05
-0.000169223
-0.000116293
-0.000183067
-0.000161229
-0.000215078
-0.000216286
-0.000281187
-0.000278598
-0.000404483
-0.000346138
-0.000610981
-0.00042809
-0.00091895
-0.000550175
-0.00133516
-0.000710219
-0.00188287
-0.000791343
-0.0024764
-0.000471154
-0.00234751
0.000916032
0.00310382
-0.00697576
-0.0115475
-0.00676607
-0.00594895
-0.0035079
-0.000641426
-0.00183772
0.00166226
-0.000934236
0.00232144
-0.000470039
0.00210188
-0.000280551
0.00160688
-0.000224073
0.0011277
-0.000213837
0.000758041
-0.000212658
0.000495041
-0.00020967
0.000312377
-0.000204307
0.000186439
-0.000198564
0.000100813
-0.000193852
4.46948e-05
-0.000190034
1.0556e-05
-0.000186104
-7.31382e-06
-0.000181554
-1.49904e-05
-0.000177787
-1.80605e-05
-0.00017473
-1.86865e-05
-0.000172487
-1.87166e-05
-0.000171105
-1.92231e-05
-0.000170458
-2.07491e-05
-0.000170364
-2.37962e-05
-0.000170971
-2.92408e-05
-0.00017321
-3.83707e-05
-0.000178388
-5.22801e-05
-0.000188576
-7.18902e-05
-0.000207624
-9.72376e-05
-0.000243229
-0.000125612
-0.000311339
-0.000148152
-0.000445362
-0.000144529
-0.00071527
-7.61307e-05
-0.0012615
0.000118344
-0.00231274
0.000501445
-0.0040711
0.00104865
-0.00644528
0.00158323
-0.00869066
0.00177439
-0.0078838
0.000109246
-0.00441968
-0.00641595
0.00129074
-0.00525909
-0.00179755
-0.00331997
-0.000276127
-0.00208845
0.00109074
-0.00135244
0.00136657
-0.000909431
0.00116438
-0.000642711
0.000861295
-0.000477669
0.00059318
-0.000370827
0.000388296
-0.000299214
0.000240814
-0.000250943
0.000138193
-0.000219269
6.91524e-05
-0.000199541
2.49753e-05
-0.000187558
-1.42109e-06
-0.000180238
-1.46286e-05
-0.000175442
-1.97815e-05
-0.000172425
-2.10723e-05
-0.000170501
-2.06054e-05
-0.000169363
-1.98493e-05
-0.000168927
-1.96539e-05
-0.000169231
-2.04405e-05
-0.000170484
-2.25377e-05
-0.000173255
-2.64655e-05
-0.000178632
-3.2988e-05
-0.000188069
-4.28373e-05
-0.000203438
-5.65142e-05
-0.00022726
-7.34076e-05
-0.000263178
-8.96808e-05
-0.000316969
-9.43391e-05
-0.000398333
-6.31234e-05
-0.000521365
4.69841e-05
-0.000700193
0.000297331
-0.000937082
0.000738613
-0.00118718
0.00129916
-0.00122751
0.00162396
-0.000558999
0.00110614
0.000318514
-0.000768132
-0.0040273
-0.00204928
0.00334919
-0.00307933
-0.000766857
-0.00304226
-0.000312642
-0.00246551
0.00051454
-0.00181987
0.00072139
-0.00128932
0.000634153
-0.000902549
0.000474718
-0.000634675
0.000325416
-0.000454067
0.000207747
-0.000335229
0.000122006
-0.000259609
6.25906e-05
-0.000213804
2.33583e-05
-0.000187797
-1.02251e-06
-0.000174468
-1.47421e-05
-0.000168206
-2.08829e-05
-0.000165451
-2.25281e-05
-0.000164446
-2.20697e-05
-0.000164226
-2.08171e-05
-0.000164405
-1.96622e-05
-0.000164953
-1.90986e-05
-0.000166074
-1.93111e-05
-0.000168229
-2.03745e-05
-0.00017224
-2.24468e-05
-0.00017936
-2.58599e-05
-0.000191147
-3.10412e-05
-0.000209218
-3.84342e-05
-0.000234665
-4.79499e-05
-0.000266797
-5.75349e-05
-0.000300726
-6.03906e-05
-0.000323576
-4.02413e-05
-0.000310017
3.34821e-05
-0.000217482
0.000204901
1.25475e-05
0.000508767
0.000453468
0.00085852
0.00108895
0.000988803
0.00158377
0.00061158
0.00128339
-0.00046755
-0.0026615
-0.00426617
-0.00571242
-0.00234941
-0.00309953
-0.00339563
-0.0028654
-0.00212847
-0.00147849
-0.000987518
-0.000645389
-0.000420513
-0.000281019
-0.000200634
-0.000159228
-0.000141999
-0.000138347
-0.000140732
-0.000144693
-0.000148153
-0.000150329
-0.00015132
-0.000151705
-0.000152245
-0.000153776
-0.0001573
-0.000164161
-0.000176136
-0.000195448
-0.000224234
-0.000262576
-0.000303763
-0.000324821
-0.000272278
-4.86979e-05
0.000478124
0.00135408
0.00236012
0.00298944
0.0025409
)
;

boundaryField
{
    floor
    {
        type            calculated;
        value           nonuniform List<scalar> 
29
(
0
0
0
0
0
0
0
0
0
0
0
0
0
0
0
0
0
0
0
0
-2.74989e-06
-7.07804e-06
-1.03639e-05
-1.17004e-05
-1.9188e-06
-2.65171e-06
-6.299e-06
-8.30181e-06
-8.50864e-06
)
;
    }
    ceiling
    {
        type            calculated;
        value           nonuniform List<scalar> 
43
(
-1.72299e-05
-1.50686e-05
-1.29673e-05
-1.62651e-05
-1.62557e-05
-1.54239e-05
-1.53211e-05
-1.56786e-05
-1.61745e-05
-1.66659e-05
-1.71007e-05
-1.74698e-05
-1.77778e-05
-1.80312e-05
-1.82347e-05
-1.83775e-05
-1.84801e-05
-1.85494e-05
-1.85929e-05
-1.86228e-05
-1.86532e-05
-1.86951e-05
-1.87531e-05
-1.8825e-05
-1.89036e-05
-1.89799e-05
-1.90472e-05
-1.91021e-05
-1.91439e-05
-1.91713e-05
-1.91799e-05
-1.9155e-05
-1.90228e-05
-1.86219e-05
-1.79518e-05
-1.72655e-05
-1.70296e-05
-1.75548e-05
-1.88394e-05
-2.03885e-05
-5.44969e-06
-5.8313e-06
-8.37838e-06
)
;
    }
    sWall
    {
        type            calculated;
        value           uniform -0.000164781;
    }
    nWall
    {
        type            calculated;
        value           nonuniform List<scalar> 6(-3.91061e-05 -4.18768e-05 -4.71117e-05 -7.37512e-05 -8.22702e-05 -0.000100091);
    }
    sideWalls
    {
        type            empty;
        value           nonuniform 0();
    }
    glass1
    {
        type            calculated;
        value           nonuniform List<scalar> 9(-5.30591e-05 -0.000141138 -0.00021746 -0.000288857 -0.000363374 -0.000424372 -0.000455362 -0.000507672 -0.000550814);
    }
    glass2
    {
        type            calculated;
        value           nonuniform List<scalar> 2(-0.000316278 -0.000360229);
    }
    sun
    {
        type            calculated;
        value           uniform 0;
    }
    heatsource1
    {
        type            calculated;
        value           nonuniform List<scalar> 3(2.05286e-07 2.05582e-07 2.06033e-07);
    }
    heatsource2
    {
        type            calculated;
        value           nonuniform List<scalar> 4(5.15991e-08 5.17424e-08 0 0);
    }
    Table_master
    {
        type            calculated;
        value           nonuniform List<scalar> 9(-1.54944e-07 -1.55166e-07 -1.55189e-07 -1.55193e-07 -1.55193e-07 -1.55192e-07 -1.55187e-07 -1.55168e-07 -1.55007e-07);
    }
    Table_slave
    {
        type            calculated;
        value           nonuniform List<scalar> 9(1.54606e-07 1.54841e-07 1.5486e-07 1.54871e-07 1.54881e-07 1.54893e-07 1.5488e-07 1.5483e-07 1.54616e-07);
    }
    inlet
    {
        type            calculated;
        value           uniform -0.000823111;
    }
    outlet
    {
        type            calculated;
        value           nonuniform List<scalar> 2(0.00444891 0.00146215);
    }
}


// ************************************************************************* //
