/*--------------------------------*- C++ -*----------------------------------*\
  =========                 |
  \\      /  F ield         | OpenFOAM: The Open Source CFD Toolbox
   \\    /   O peration     | Website:  https://openfoam.org
    \\  /    A nd           | Version:  6
     \\/     M anipulation  |
\*---------------------------------------------------------------------------*/
FoamFile
{
    version     2.0;
    format      ascii;
    class       volScalarField;
    location    "10";
    object      T;
}
// * * * * * * * * * * * * * * * * * * * * * * * * * * * * * * * * * * * * * //

dimensions      [0 0 0 1 0 0 0];

internalField   nonuniform List<scalar> 
459
(
302.093
301.793
301.759
301.742
301.718
301.69
301.665
301.647
301.637
301.631
301.629
301.628
301.628
301.631
301.644
301.663
301.636
301.631
301.629
301.629
301.631
301.634
301.635
301.635
301.635
301.635
301.635
301.635
301.635
301.634
301.632
301.632
301.637
301.662
302.274
301.925
301.877
301.854
301.812
301.759
301.709
301.671
301.646
301.631
301.624
301.62
301.619
301.618
301.619
301.614
301.611
301.638
301.622
301.619
301.617
301.617
301.617
301.617
301.617
301.617
301.617
301.617
301.616
301.616
301.617
301.617
301.617
301.619
301.623
301.641
302.464
302.076
302.035
302.01
301.944
301.856
301.772
301.707
301.665
301.64
301.627
301.62
301.617
301.615
301.614
301.613
301.612
301.625
301.617
301.615
301.614
301.613
301.613
301.612
301.612
301.612
301.612
301.612
301.612
301.612
301.612
301.612
301.614
301.616
301.62
301.634
302.677
302.273
302.274
302.244
302.14
302
301.863
301.758
301.691
301.653
301.632
301.621
301.616
301.614
301.613
301.612
301.613
301.618
301.615
301.613
301.613
301.612
301.611
301.611
301.61
301.609
301.609
301.609
301.609
301.609
301.609
301.61
301.612
301.615
301.618
301.622
301.631
302.952
302.567
302.578
302.526
302.399
302.208
301.998
301.831
301.725
301.667
301.638
301.623
301.617
301.614
301.612
301.612
301.612
301.612
301.612
301.612
301.611
301.611
301.611
301.61
301.61
301.609
301.609
301.609
301.609
301.61
301.61
301.612
301.614
301.618
301.624
301.63
301.637
301.642
301.641
301.66
303.109
302.905
302.857
302.8
302.685
302.462
302.165
301.911
301.757
301.679
301.642
301.625
301.617
301.613
301.612
301.611
301.611
301.611
301.611
301.611
301.611
301.611
301.61
301.61
301.61
301.61
301.609
301.609
301.61
301.61
301.611
301.613
301.617
301.624
301.634
301.648
301.665
301.675
301.669
301.673
302.422
302.177
302.205
302.306
302.373
302.31
302.111
301.896
301.752
301.677
301.641
301.624
301.616
301.613
301.612
301.611
301.611
301.611
301.611
301.611
301.611
301.61
301.61
301.61
301.61
301.61
301.61
301.61
301.61
301.611
301.612
301.615
301.621
301.631
301.649
301.676
301.708
301.73
301.715
301.701
302.098
301.587
301.755
302.08
302.202
302.139
301.976
301.821
301.719
301.663
301.635
301.622
301.615
301.613
301.612
301.611
301.611
301.611
301.611
301.611
301.611
301.61
301.61
301.61
301.61
301.61
301.61
301.61
301.61
301.611
301.613
301.617
301.625
301.64
301.67
301.717
301.772
301.811
301.831
301.9
301.817
301.378
301.344
301.853
302.004
301.959
301.847
301.748
301.684
301.647
301.628
301.619
301.614
301.612
301.612
301.611
301.611
301.611
301.611
301.611
301.611
301.611
301.611
301.611
301.611
301.611
301.611
301.611
301.611
301.612
301.614
301.618
301.627
301.648
301.691
301.767
301.851
301.903
301.926
301.957
300.728
301.555
301.779
301.796
301.745
301.692
301.655
301.634
301.622
301.616
301.614
301.613
301.612
301.612
301.612
301.612
301.612
301.612
301.612
301.612
301.612
301.612
301.612
301.611
301.611
301.612
301.612
301.612
301.614
301.617
301.624
301.64
301.669
301.717
301.772
301.802
301.762
301.736
301.106
301.531
301.65
301.686
301.675
301.652
301.634
301.624
301.618
301.615
301.614
301.614
301.614
301.614
301.614
301.614
301.614
301.614
301.614
301.614
301.614
301.614
301.614
301.613
301.613
301.614
301.614
301.614
301.615
301.617
301.621
301.63
301.647
301.676
301.709
301.723
301.703
301.707
301.218
301.207
301.244
301.541
301.616
301.635
301.635
301.629
301.624
301.621
301.62
301.62
301.62
301.62
301.621
301.621
301.621
301.621
301.621
301.621
301.621
301.621
301.621
301.621
301.621
301.621
301.621
301.621
301.621
301.621
301.621
301.622
301.623
301.626
301.633
301.647
301.664
301.67
301.666
301.693
)
;

boundaryField
{
    floor
    {
        type            wallHeatTransfer;
        Tinf            uniform 305.2;
        alphaWall       uniform 0.24;
        value           nonuniform List<scalar> 
29
(
301.898
302.013
301.92
301.892
301.887
301.895
301.918
301.961
301.986
301.995
301.997
301.997
301.997
301.995
301.989
301.971
301.937
301.928
301.949
302.026
302.026
301.953
301.908
301.852
301.898
302.013
301.915
301.845
301.81
)
;
    }
    ceiling
    {
        type            wallHeatTransfer;
        Tinf            uniform 303.2;
        alphaWall       uniform 0.24;
        value           nonuniform List<scalar> 
43
(
301.31
301.287
301.313
301.628
301.702
301.717
301.716
301.712
301.71
301.71
301.711
301.713
301.715
301.716
301.718
301.719
301.719
301.72
301.72
301.72
301.72
301.72
301.721
301.721
301.721
301.722
301.722
301.723
301.723
301.723
301.724
301.724
301.725
301.725
301.729
301.739
301.755
301.764
301.767
301.802
301.854
301.419
301.159
)
;
    }
    sWall
    {
        type            wallHeatTransfer;
        Tinf            uniform 315.2;
        alphaWall       uniform 0.36;
        value           uniform 302.175;
    }
    nWall
    {
        type            wallHeatTransfer;
        Tinf            uniform 307.2;
        alphaWall       uniform 0.36;
        value           nonuniform List<scalar> 6(302.237 302.181 302.187 302.255 302.231 302.273);
    }
    sideWalls
    {
        type            empty;
    }
    glass1
    {
        type            wallHeatTransfer;
        Tinf            uniform 315.2;
        alphaWall       uniform 4.3;
        value           nonuniform List<scalar> 9(309.503 308.855 308.562 308.476 308.635 308.55 307.33 306.823 306.304);
    }
    glass2
    {
        type            wallHeatTransfer;
        Tinf            uniform 307.2;
        alphaWall       uniform 4.3;
        value           nonuniform List<scalar> 2(304.774 304.861);
    }
    sun
    {
        type            wallHeatTransfer;
        Tinf            uniform 305.2;
        alphaWall       uniform 0.24;
        value           nonuniform List<scalar> 
14
(
302.3
301.995
301.959
301.938
301.912
301.886
301.865
301.854
301.85
301.85
301.852
301.855
301.86
301.87
)
;
    }
    heatsource1
    {
        type            fixedGradient;
        gradient        uniform 0;
    }
    heatsource2
    {
        type            fixedGradient;
        gradient        uniform 0;
    }
    Table_master
    {
        type            zeroGradient;
    }
    Table_slave
    {
        type            zeroGradient;
    }
    inlet
    {
        type            fixedValue;
        value           uniform 290.15;
    }
    outlet
    {
        type            zeroGradient;
    }
}


// ************************************************************************* //
