/*--------------------------------*- C++ -*----------------------------------*\
  =========                 |
  \\      /  F ield         | OpenFOAM: The Open Source CFD Toolbox
   \\    /   O peration     | Website:  https://openfoam.org
    \\  /    A nd           | Version:  6
     \\/     M anipulation  |
\*---------------------------------------------------------------------------*/
FoamFile
{
    version     2.0;
    format      ascii;
    class       volVectorField;
    location    "10";
    object      U;
}
// * * * * * * * * * * * * * * * * * * * * * * * * * * * * * * * * * * * * * //

dimensions      [0 1 -1 0 0 0 0];

internalField   nonuniform List<vector> 
459
(
(0.0304275 0.0758924 0)
(-0.15351 0.0114917 0)
(-0.146944 -0.010499 0)
(-0.134202 -0.0182688 0)
(-0.112159 -0.022852 0)
(-0.0853169 -0.0229481 0)
(-0.0592676 -0.0190646 0)
(-0.0381684 -0.0133457 0)
(-0.0235127 -0.00803919 0)
(-0.0145224 -0.00425139 0)
(-0.00949206 -0.0020354 0)
(-0.00671588 -0.00100553 0)
(-0.00476159 -0.000767472 0)
(-0.00364361 -0.00112379 0)
(-0.0142465 -0.00167743 0)
(0.0225329 0.00273197 0)
(-0.00491425 3.51423e-05 0)
(-0.00224176 -0.00156287 0)
(-0.000178208 -0.000877497 0)
(0.000829529 -0.000561968 0)
(0.00154099 -0.000276729 0)
(0.00162495 0.000233427 0)
(0.0013397 0.000150519 0)
(0.00126412 8.07543e-05 0)
(0.00124836 7.53676e-05 0)
(0.00121645 9.65258e-05 0)
(0.00113701 0.000147091 0)
(0.000961742 0.000240847 0)
(0.00065503 0.000308025 0)
(0.000427019 -0.000110319 0)
(0.00169862 -0.00206365 0)
(0.00543487 -0.00344523 0)
(0.00955767 -0.00117305 0)
(-0.020861 0.00471175 0)
(0.173296 0.162062 0)
(-0.135136 0.0478778 0)
(-0.117132 -0.000961241 0)
(-0.107909 -0.0243215 0)
(-0.091537 -0.0369345 0)
(-0.0711398 -0.0402868 0)
(-0.0508865 -0.0359662 0)
(-0.0340034 -0.0273678 0)
(-0.0217343 -0.0182541 0)
(-0.0137297 -0.01094 0)
(-0.00894903 -0.00608483 0)
(-0.00626595 -0.00338478 0)
(-0.00472589 -0.00217239 0)
(-0.00381113 -0.00173515 0)
(-0.00450089 -0.00261981 0)
(-0.00248155 -0.00349908 0)
(-0.000148162 -0.00245027 0)
(0.0369959 0.00277281 0)
(0.000785709 0.000594874 0)
(2.18709e-05 -0.00104625 0)
(-2.53478e-05 -0.00115011 0)
(0.00020339 -0.00120204 0)
(0.000833972 -0.00103022 0)
(0.00135788 0.000162703 0)
(0.00125856 0.000171038 0)
(0.00119562 8.37726e-05 0)
(0.00120764 7.5418e-05 0)
(0.00121516 0.00010989 0)
(0.00122208 0.000187402 0)
(0.00122095 0.000292965 0)
(0.00107719 0.00027198 0)
(0.000682543 -0.000467064 0)
(0.00150584 -0.00325522 0)
(0.00291143 -0.0034561 0)
(0.00424157 0.000541708 0)
(-0.0447806 0.00864267 0)
(0.298256 0.241187 0)
(-0.137365 0.0710424 0)
(-0.0856552 -0.00052127 0)
(-0.0708019 -0.0358558 0)
(-0.0589178 -0.0525671 0)
(-0.045339 -0.0568246 0)
(-0.0317121 -0.0507688 0)
(-0.0205942 -0.0387633 0)
(-0.01298 -0.026075 0)
(-0.00837089 -0.0158584 0)
(-0.00582788 -0.00895505 0)
(-0.00453949 -0.00496872 0)
(-0.00388279 -0.00309534 0)
(-0.0034023 -0.00257137 0)
(-0.00312111 -0.00303124 0)
(-0.00245522 -0.0034758 0)
(8.81611e-05 -0.00340771 0)
(0.0271928 -0.000253859 0)
(-0.000982079 0.000252827 0)
(-0.00152712 -6.45588e-05 0)
(-0.00170786 -0.000798905 0)
(-0.00158938 -0.00158464 0)
(-0.000838063 -0.00221014 0)
(0.00146899 -0.000491436 0)
(0.00144772 -0.00143272 0)
(0.00123888 -0.00164859 0)
(0.00125602 -0.00167861 0)
(0.00130167 -0.00166041 0)
(0.00140697 -0.00160221 0)
(0.0016003 -0.00147632 0)
(0.00142718 -0.0013016 0)
(0.000716233 -0.000862812 0)
(0.00478438 -0.00405246 0)
(0.00616069 -0.00146167 0)
(0.00685119 0.00458448 0)
(-0.0549181 0.0140785 0)
(0.422873 0.300785 0)
(-0.142093 0.0693176 0)
(-0.0293237 -0.0256236 0)
(-0.00142286 -0.0548818 0)
(-0.0007655 -0.065394 0)
(-0.00128967 -0.0683787 0)
(0.000349448 -0.0603268 0)
(0.0019055 -0.0450324 0)
(0.00189557 -0.029449 0)
(0.000779213 -0.0173824 0)
(-0.0005996 -0.00947546 0)
(-0.00181946 -0.00502443 0)
(-0.00276133 -0.00301092 0)
(-0.00341667 -0.0025349 0)
(-0.00397896 -0.00295324 0)
(-0.00461135 -0.00324424 0)
(-0.00542155 -0.00103108 0)
(-0.00759774 0.0191538 0)
(-0.00429116 0.00160543 0)
(-0.00554918 0.00113853 0)
(-0.0046976 0.000333076 0)
(-0.0045203 -0.000580151 0)
(-0.00484061 -0.00143486 0)
(-0.00572896 -0.00210995 0)
(-0.00731941 -0.000787998 0)
(-0.00662556 -0.000912279 0)
(-0.00582891 -0.00114382 0)
(-0.00492664 -0.00144017 0)
(-0.0035431 -0.00187918 0)
(-0.00143821 -0.0025304 0)
(0.00169115 -0.00345981 0)
(0.00617482 -0.00461887 0)
(0.0135109 -0.0053181 0)
(0.0161736 -0.00573014 0)
(0.0187581 -0.00129926 0)
(0.0218415 0.006298 0)
(-0.0184834 0.025706 0)
(0.612411 0.356276 0)
(-0.0288634 0.0486112 0)
(0.110313 -0.0625849 0)
(0.1382 -0.0693955 0)
(0.11003 -0.0658794 0)
(0.0764653 -0.0648836 0)
(0.0514783 -0.0560613 0)
(0.0343897 -0.0400158 0)
(0.0215991 -0.0243456 0)
(0.0120246 -0.0130462 0)
(0.00539218 -0.00621025 0)
(0.00105155 -0.00270704 0)
(-0.00174636 -0.0013981 0)
(-0.0035937 -0.001372 0)
(-0.00501029 -0.00193053 0)
(-0.00634941 -0.00233138 0)
(-0.00743621 -0.00173199 0)
(-0.00778366 0.000433497 0)
(-0.00700555 -0.000336981 0)
(-0.00676866 0.000155082 0)
(-0.00628279 -6.36707e-05 0)
(-0.00614201 -0.000532634 0)
(-0.00633356 -0.000951719 0)
(-0.00674567 -0.00105931 0)
(-0.00692154 -0.000595559 0)
(-0.00650801 -0.000751239 0)
(-0.00587097 -0.00112614 0)
(-0.00497583 -0.00173862 0)
(-0.00363187 -0.00268063 0)
(-0.00163826 -0.00406153 0)
(0.0012633 -0.00598799 0)
(0.00537849 -0.00841941 0)
(0.0114493 -0.0106249 0)
(0.0188956 -0.0116421 0)
(0.0292205 -0.0096114 0)
(0.0458161 -0.00361356 0)
(0.0663007 0.00718564 0)
(0.102719 -0.00502202 0)
(0.114335 0.0142881 0)
(-0.0586868 0.0548764 0)
(0.821979 0.183013 0)
(0.474059 0.0788164 0)
(0.45056 0.0601927 0)
(0.426277 0.0589123 0)
(0.338954 0.0429647 0)
(0.22573 0.0146436 0)
(0.133657 -0.00386977 0)
(0.0758794 -0.00678943 0)
(0.0418325 -0.00337606 0)
(0.0216199 -2.56018e-05 0)
(0.00968154 0.00177126 0)
(0.00267383 0.00217359 0)
(-0.00147981 0.00163879 0)
(-0.00402184 0.000646238 0)
(-0.00574987 -0.000375825 0)
(-0.00708248 -0.000985263 0)
(-0.00796317 -0.000821234 0)
(-0.00797622 -6.8407e-05 0)
(-0.00753587 -0.000276538 0)
(-0.00731915 -0.000183354 0)
(-0.00704806 -0.000309266 0)
(-0.00691873 -0.000549313 0)
(-0.00694845 -0.000767899 0)
(-0.00703558 -0.000861793 0)
(-0.00693844 -0.000862098 0)
(-0.0065868 -0.00118346 0)
(-0.00608185 -0.00178247 0)
(-0.00536713 -0.00271 0)
(-0.00433401 -0.0040952 0)
(-0.00285757 -0.00610302 0)
(-0.000785612 -0.00890189 0)
(0.00211555 -0.0125793 0)
(0.00641331 -0.0168602 0)
(0.0130835 -0.0212199 0)
(0.0239804 -0.0250417 0)
(0.0415531 -0.0274681 0)
(0.065103 -0.0271299 0)
(0.0884896 -0.0178516 0)
(0.105577 0.0329469 0)
(-0.05283 0.116193 0)
(0.801552 -0.390133 0)
(0.321925 -0.243978 0)
(0.35955 -0.0995564 0)
(0.363606 0.0257239 0)
(0.290693 0.0851165 0)
(0.198142 0.0936776 0)
(0.122691 0.0730244 0)
(0.0718233 0.0467873 0)
(0.0395997 0.028454 0)
(0.0198173 0.0180846 0)
(0.00804786 0.0120963 0)
(0.00119981 0.00812681 0)
(-0.00275759 0.00513746 0)
(-0.00508062 0.00279897 0)
(-0.00653496 0.00106518 0)
(-0.00750767 1.57103e-05 0)
(-0.00805377 -0.00031162 0)
(-0.00803796 -0.000206379 0)
(-0.00777076 -0.000367983 0)
(-0.00758096 -0.000413691 0)
(-0.00738605 -0.000501548 0)
(-0.00725912 -0.000636788 0)
(-0.00720895 -0.000783702 0)
(-0.00717521 -0.000922817 0)
(-0.00704956 -0.00111712 0)
(-0.00681141 -0.00156124 0)
(-0.00650167 -0.00230048 0)
(-0.00610318 -0.00342177 0)
(-0.00559126 -0.00506835 0)
(-0.00495898 -0.00742103 0)
(-0.00423125 -0.0106812 0)
(-0.00344946 -0.0150403 0)
(-0.00248128 -0.020658 0)
(-0.000645449 -0.0278457 0)
(0.0035796 -0.0370576 0)
(0.0119584 -0.0474942 0)
(0.0255383 -0.0551125 0)
(0.0484995 -0.0452338 0)
(0.0900156 0.026102 0)
(-0.0588899 0.175766 0)
(0.584547 -0.352676 0)
(-0.222408 -0.153735 0)
(-0.0180733 -0.00370511 0)
(0.107762 0.149187 0)
(0.068758 0.164609 0)
(0.0490196 0.14643 0)
(0.0383934 0.111313 0)
(0.0274722 0.0752486 0)
(0.016132 0.0481869 0)
(0.00685722 0.0307034 0)
(0.000526141 0.0197232 0)
(-0.00333234 0.0125809 0)
(-0.00553931 0.00769817 0)
(-0.00677514 0.004275 0)
(-0.00748551 0.00194038 0)
(-0.00790665 0.000507345 0)
(-0.00808999 -0.000180927 0)
(-0.00800602 -0.000412529 0)
(-0.00780614 -0.000592103 0)
(-0.00763564 -0.000661804 0)
(-0.00748131 -0.000716563 0)
(-0.00737136 -0.000796619 0)
(-0.00730727 -0.000910099 0)
(-0.00725949 -0.001071 0)
(-0.00718704 -0.0013364 0)
(-0.00709431 -0.00181784 0)
(-0.00701927 -0.00258106 0)
(-0.00699425 -0.003712 0)
(-0.00708067 -0.00532324 0)
(-0.00741323 -0.00753458 0)
(-0.00827044 -0.0104549 0)
(-0.0101792 -0.0141932 0)
(-0.0139537 -0.0189928 0)
(-0.0204982 -0.0255831 0)
(-0.0307942 -0.0350074 0)
(-0.0470023 -0.0458016 0)
(-0.0672704 -0.0474949 0)
(-0.0732748 -0.00967169 0)
(-0.110149 0.102093 0)
(-0.484016 0.241887 0)
(0.256848 -0.254415 0)
(-0.459948 -0.194003 0)
(-0.553006 -0.135637 0)
(-0.100581 0.0618444 0)
(-0.101986 0.123085 0)
(-0.058262 0.127549 0)
(-0.0291031 0.105173 0)
(-0.0151945 0.0762965 0)
(-0.0104016 0.0518594 0)
(-0.009308 0.034282 0)
(-0.00919139 0.022285 0)
(-0.00910748 0.0141285 0)
(-0.0088961 0.00853627 0)
(-0.00862987 0.00471572 0)
(-0.00839533 0.00218673 0)
(-0.00821897 0.00063809 0)
(-0.00806235 -0.000173933 0)
(-0.00787385 -0.000523131 0)
(-0.00768635 -0.000687482 0)
(-0.00754072 -0.000737334 0)
(-0.00742635 -0.000758029 0)
(-0.00734887 -0.000797843 0)
(-0.00730731 -0.000879881 0)
(-0.00729237 -0.0010272 0)
(-0.00729856 -0.00128478 0)
(-0.00734896 -0.00172265 0)
(-0.00749244 -0.00239651 0)
(-0.0077951 -0.00336243 0)
(-0.00837012 -0.00465825 0)
(-0.00943728 -0.00624716 0)
(-0.0114533 -0.00792454 0)
(-0.015393 -0.0092014 0)
(-0.0232245 -0.00923753 0)
(-0.0385176 -0.00690351 0)
(-0.0681811 -0.00119617 0)
(-0.126734 0.00696769 0)
(-0.219901 0.0121496 0)
(-0.313342 0.00511456 0)
(-0.4063 -0.0164409 0)
(-0.639106 -0.046518 0)
(-1.28402 -0.142781 0)
(-0.127917 -0.0693081 0)
(-0.162808 0.0269859 0)
(-0.111341 0.074156 0)
(-0.0714743 0.0760878 0)
(-0.0466498 0.0614466 0)
(-0.0321505 0.0446372 0)
(-0.0233964 0.0307442 0)
(-0.0178273 0.0204669 0)
(-0.0141243 0.0131892 0)
(-0.0116173 0.00815254 0)
(-0.00994508 0.00475462 0)
(-0.00887906 0.00256234 0)
(-0.00823335 0.001257 0)
(-0.00784632 0.000587333 0)
(-0.00759839 0.000308496 0)
(-0.00743575 0.00021368 0)
(-0.00733463 0.000210088 0)
(-0.00727045 0.000228896 0)
(-0.00723664 0.000230778 0)
(-0.0072329 0.000194825 0)
(-0.00726316 0.000101299 0)
(-0.00734179 -8.19739e-05 0)
(-0.00750426 -0.000400259 0)
(-0.00780544 -0.000892582 0)
(-0.00831404 -0.00158516 0)
(-0.00911893 -0.00245427 0)
(-0.0103422 -0.00333606 0)
(-0.0121724 -0.00375838 0)
(-0.0149424 -0.00267096 0)
(-0.0191705 0.00188577 0)
(-0.0252163 0.012771 0)
(-0.0329485 0.0321324 0)
(-0.0428113 0.0575442 0)
(-0.0560727 0.0785785 0)
(-0.0623776 0.076011 0)
(0.0561226 -0.0105046 0)
(-0.221968 -0.224707 0)
(-0.391103 0.0580789 0)
(-0.00961148 -0.0546019 0)
(-0.133094 -0.0171774 0)
(-0.120772 0.0354106 0)
(-0.0907685 0.0494783 0)
(-0.0649976 0.0445478 0)
(-0.045771 0.0346224 0)
(-0.032108 0.0252757 0)
(-0.0227308 0.0179702 0)
(-0.016475 0.012706 0)
(-0.0124273 0.00910357 0)
(-0.00991662 0.00676115 0)
(-0.00845496 0.00533399 0)
(-0.00767296 0.00449873 0)
(-0.00729281 0.00412893 0)
(-0.00712088 0.00403521 0)
(-0.00705166 0.0040636 0)
(-0.00703195 0.00414051 0)
(-0.00703278 0.00422374 0)
(-0.0070474 0.0042936 0)
(-0.00708053 0.00434125 0)
(-0.00714572 0.00435506 0)
(-0.00726902 0.0043115 0)
(-0.00749501 0.00417608 0)
(-0.00788498 0.00391618 0)
(-0.00850833 0.0035118 0)
(-0.00942769 0.00299245 0)
(-0.0106614 0.00252549 0)
(-0.0121039 0.00258166 0)
(-0.0133993 0.00416881 0)
(-0.0137555 0.00887126 0)
(-0.0117321 0.0187126 0)
(-0.00500141 0.0358083 0)
(0.00921022 0.0579668 0)
(0.0287662 0.0712121 0)
(0.0520359 0.0546077 0)
(0.116306 -0.014846 0)
(-0.179254 -0.140335 0)
(0.0867222 -0.189539 0)
(-0.231609 -0.0612002 0)
(-0.225025 0.085887 0)
(-0.0645667 -0.0860036 0)
(-0.147674 -0.0639449 0)
(-0.136635 -0.0271836 0)
(-0.105846 -0.0170027 0)
(-0.076058 -0.0212989 0)
(-0.0520007 -0.0297646 0)
(-0.034366 -0.0384735 0)
(-0.0223359 -0.0461706 0)
(-0.0146284 -0.0525289 0)
(-0.0100144 -0.0575687 0)
(-0.00749483 -0.0614397 0)
(-0.00631196 -0.0643198 0)
(-0.00592401 -0.0662059 0)
(-0.00593882 -0.0673982 0)
(-0.00609641 -0.0681147 0)
(-0.00626484 -0.0685089 0)
(-0.00639 -0.0687442 0)
(-0.00645791 -0.0689938 0)
(-0.00648548 -0.0693862 0)
(-0.00650255 -0.0699727 0)
(-0.00654296 -0.0707269 0)
(-0.00664504 -0.0715677 0)
(-0.00685866 -0.0724019 0)
(-0.0072503 -0.0731631 0)
(-0.0079056 -0.0738266 0)
(-0.00892267 -0.074388 0)
(-0.0103677 -0.074809 0)
(-0.012139 -0.0749337 0)
(-0.0136101 -0.0743242 0)
(-0.0130275 -0.0714161 0)
(-0.00757284 -0.06277 0)
(0.00855593 -0.0458311 0)
(0.0385693 -0.0254423 0)
(0.0771953 -0.0162486 0)
(0.114458 -0.0316222 0)
(0.163284 -0.0770877 0)
(-0.153188 -0.149335 0)
)
;

boundaryField
{
    floor
    {
        type            noSlip;
    }
    ceiling
    {
        type            noSlip;
    }
    sWall
    {
        type            noSlip;
    }
    nWall
    {
        type            noSlip;
    }
    sideWalls
    {
        type            empty;
    }
    glass1
    {
        type            noSlip;
    }
    glass2
    {
        type            noSlip;
    }
    sun
    {
        type            noSlip;
    }
    heatsource1
    {
        type            noSlip;
    }
    heatsource2
    {
        type            noSlip;
    }
    Table_master
    {
        type            noSlip;
    }
    Table_slave
    {
        type            noSlip;
    }
    inlet
    {
        type            fixedValue;
        value           uniform (0.1 0 0);
    }
    outlet
    {
        type            zeroGradient;
    }
}


// ************************************************************************* //
