/*--------------------------------*- C++ -*----------------------------------*=========                 |
  \      /  F ield         | OpenFOAM: The Open Source CFD Toolbox
   \    /   O peration     | Website:  https://openfoam.org
    \  /    A nd           | Version:  6
     \/     M anipulation  |
\*---------------------------------------------------------------------------*/
FoamFile
{
    version     2.0;
    format      ascii;
    class       volScalarField;
    location    "300";
    object      PMV;
}
// * * * * * * * * * * * * * * * * * * * * * * * * * * * * * * * * * * * * * //

dimensions      [0 0 0 0 0 0 0];

internalField   nonuniform List<scalar> 
459
(
1.5934009122996557
1.3827719200159796
1.3693739598515506
1.345057901026069
1.3266121816367826
1.3120684074327689
1.3020673991185645
1.2954607037357961
1.2930512365571012
1.2955251726682908
1.30292519338
1.3176912949210204
1.342489383381707
1.3704426056063568
1.3643412681631677
1.4652031209958862
1.5063791185689257
1.5044696337994379
1.4802035824257314
1.465111467900465
1.4588376206317777
1.4556801932536116
1.4552335031354882
1.4554900543870601
1.4565694559913909
1.457276331124404
1.4581455288416347
1.4593879205736275
1.4614849773357974
1.46559006577587
1.4736619600744745
1.490118291943485
1.4901477349312218
1.4958766547612323
1.5678263432831185
1.3861090492153527
1.395963856457832
1.371309171354585
1.3555421113434256
1.3438243168854938
1.3356085988441906
1.330197596261685
1.3283206066336137
1.3305489749158332
1.3339565749874758
1.3404892662779249
1.348477329324183
1.3534081868125158
1.3512805681031923
1.3865105746532709
1.4546237237908626
1.4215647467237442
1.499218426373178
1.4973088515126451
1.4941364960109667
1.4798167559516184
1.472199830548448
1.4664907434459808
1.4639297711202357
1.461443506746361
1.4591040557166297
1.4565743857171676
1.4536010194392213
1.4511798164168621
1.4493814039862407
1.448560896004503
1.4535287320296506
1.4696173977778784
1.4710498318462988
1.449990472005981
1.6325836377913887
1.372648443126712
1.4242694660422308
1.4056525639747777
1.3983867457392156
1.3937364552733613
1.3910342336411332
1.389848174101593
1.3899904590923957
1.3917177938739052
1.3918224824660956
1.3884681723773264
1.3803692467223374
1.367380249616727
1.3588753543812004
1.3784468818815543
1.4109492802829193
1.4239588295251842
1.5011279773558432
1.5011279773558432
1.4996958163615277
1.4982636419209876
1.4958766547612323
1.4915799847234037
1.4868057676902071
1.482508848375373
1.4786892669289768
1.4743921290634217
1.470572355217594
1.4651959060274118
1.4578090223419533
1.4468528101218165
1.4427524056354146
1.4569207039333913
1.4396898480433051
1.3783899981010144
1.7260647730235645
1.3669763325415563
1.4440959410363117
1.4366737787749455
1.4439104350916763
1.449935437599409
1.456784316049431
1.4624943685598688
1.4671147982539245
1.4697850829643018
1.4647998417376984
1.4495994720661953
1.4236010197190745
1.3907549193858337
1.3626286821601454
1.3570481267907617
1.393545518358284
1.4891928944285937
1.4733593199508497
1.5044696337994379
1.50685648597205
1.5063791185689257
1.5049470072620097
1.5030375043543003
1.5016053613581295
1.4947619389800453
1.4756433373115554
1.4607692397801522
1.4497181464653304
1.4422948514821072
1.4412929548285969
1.4481571595083789
1.4677453588521936
1.4681747240036647
1.457656482815041
1.4086300525600493
1.3255687971680545
1.8276968419795903
1.380280154954618
1.459231969248192
1.4628593130942058
1.4843685632224466
1.5053024615811352
1.5253464749926695
1.5431613117547553
1.5553309798035966
1.5593777903208355
1.5468342383494913
1.5160419757282102
1.4702883961448212
1.4178008901912298
1.3688746742356481
1.3421520137038665
1.3663840230571298
1.4421888098698032
1.4734714724125202
1.5106753703703504
1.5140168137923813
1.5140168137923813
1.5125847758435433
1.5111527240415994
1.5101980151666414
1.5092433001684329
1.507811216219467
1.4978144222303171
1.4851940564017914
1.4747877877571878
1.4691062167388358
1.4676760451269277
1.4703426982254002
1.4618315929545733
1.4424928044226102
1.3804129009913872
1.3737670817005019
1.5039922588261951
1.46862872916856
1.2986691797123253
1.9227824359367243
1.4163891300015896
1.4908069059390878
1.48617985059306
1.5135308551388416
1.5489381330271872
1.5885136926863985
1.6300793043253008
1.6595250508468768
1.6606328964016144
1.6205929761225963
1.5675030671068997
1.5064368433106627
1.4410106680101713
1.3771425002980597
1.3333172412640055
1.3544639729121393
1.4240584371944933
1.482571681872629
1.5178355135820725
1.521176794139047
1.521176794139047
1.5202221503747697
1.5192675003449096
1.5183128440631644
1.5173581815430939
1.5159261760959146
1.5140168137923813
1.5111527240415994
1.5073338518561328
1.5020827438597517
1.4957265698149886
1.4823603745144143
1.4603556007046008
1.4316097403745969
1.3690818621976646
1.375868731787825
1.3897324160788957
1.381867531428646
1.3834861485351095
2.0017270925175823
1.507976140624969
1.6254723987395754
1.5400635636607352
1.5315801113913685
1.566340790054354
1.6200507836776799
1.644743589020138
1.6671534011670643
1.6868931729330319
1.6328870639870094
1.5784834446582074
1.5172756537132268
1.4503809086416375
1.3820873295961966
1.3289169145381843
1.3500706418944681
1.4214474835893627
1.4938260581419662
1.5245179977753205
1.5278591239038295
1.5283364212749562
1.5278591239038295
1.5273818249389037
1.5269045243818409
1.5259499184983372
1.5245179977753205
1.522131431624079
1.518790172984693
1.5140168137923813
1.50685648597205
1.499218426373178
1.4920573983911274
1.478216874941113
1.4418179661912978
1.3837295518176875
1.369512928768271
1.3583351632556542
1.3268218925873463
1.425167593182805
2.13633997388205
1.8671330094705219
1.83310828554261
1.6881608935488084
1.6236354593497915
1.606156974661708
1.6106181701128508
1.6203733530042326
1.6190322967316089
1.6106598280527946
1.588358678402456
1.548888543479582
1.4973711547731485
1.4389508218664473
1.3766367503228918
1.324900966347567
1.3537078231856186
1.4348188430947488
1.5173553956406998
1.5312001719348745
1.5345411412761099
1.5354956894085978
1.5354956894085978
1.5354956894085978
1.5354956894085978
1.5345411412761099
1.5335865866713654
1.5312001719348745
1.5278591239038295
1.5235633760481873
1.5168808479479285
1.507811216219467
1.50017320485588
1.4930122213221146
1.4868057676902071
1.4755417046396522
1.4556757663220066
1.4475553912038284
1.3820212452820786
1.2906193979302538
2.331174687421355
2.1791077418712756
2.0046174397485026
1.8499029050440405
1.7394053149112896
1.669096716442905
1.6279119731561147
1.6059240790517908
1.593129058498414
1.5674229045940553
1.5298353174172694
1.4885498299363493
1.4470223195311673
1.406282029231443
1.3601618971862195
1.3200516801708484
1.3712225219783576
1.4696586748118368
1.5288137170505607
1.5388365567026128
1.5417000935469876
1.5426545926931092
1.5436090852481792
1.541154365431869
1.5327625438162737
1.5236935254194401
1.5141157682008477
1.5041861674359598
1.4938111652402464
1.4833748544687442
1.4718691682215728
1.460004434737779
1.4507780504464076
1.4389044378991733
1.4244090156097378
1.4119001380187335
1.4031149659294824
1.3976051421590174
1.3860786075814389
1.352328049642667
-2.1424370439453653
0.011103850685386753
0.8208716134070807
1.1481467510393486
1.2843852349566114
1.3404017324153912
1.3568211866279283
1.3633305132368077
1.3632343929198787
1.360208004742922
1.3583142311676346
1.3568718937169642
1.3467219192165565
1.3301195693127335
1.4259265388709597
1.5140168137923813
1.538359294833577
1.5464725232262828
1.5493359013773298
1.5430156033009292
1.531337069757379
1.5206637853251022
1.5100902471320066
1.4994050146813482
1.4887226553428747
1.478427582772036
1.4690825355219006
1.4623129999026747
1.4576672961400372
1.455709965029942
1.4557365382288483
1.4564632839943437
1.4570801244297775
1.4603842598805732
1.4722664022299878
1.5104063063364777
1.589244257103123
1.4037892538930599
-1.6363974711671818
0.034606970774398095
0.7000322429660538
0.9926267342973615
1.1327462745241204
1.194780422512941
1.219742927887456
1.2332866836287362
1.2495111563620136
1.2679946392492978
1.2909933643508733
1.3191899420886979
1.343196043140153
1.3528016948757893
1.5054243792122277
1.5369274994414994
1.5331168397294104
1.533952377725477
1.5234858127610393
1.5127248998033949
1.5039607356348477
1.4966693024378381
1.4903868274759735
1.4848647968063586
1.480453720664944
1.476668372475404
1.4741484284818798
1.472848296294847
1.4735621162604307
1.4775694768420915
1.4864689806088256
1.5009069903793122
1.5149304325197421
1.526417259840902
1.538946576279169
1.5792455986581975
1.5145744924559728
1.4502068864730295
-0.7580522180613183
-0.8394997974094597
-0.7547015377527239
0.4080005200778611
0.8667371687062387
1.1365573671478773
1.2445958953998892
1.2017633003314707
1.1762809880465392
1.1637393355414303
1.1613442693574918
1.1661552885704
1.172882159652247
1.1784064814267698
1.1788583650066866
1.2442590299333682
1.3934388229836694
1.4175942245732671
1.4172353052838373
1.4177885445128044
1.4177956607921018
1.4175218672639691
1.4174386546622504
1.4172407858640894
1.4181852363949286
1.4194601942321508
1.421820294063613
1.425607944980095
1.430839289102258
1.439338039815401
1.451311930127213
1.4683941980006074
1.4952769832954722
1.5411187089610676
1.5970483171777021
1.605157875488239
1.5698371435927465
1.5106481395277407
1.4611903858551598
1.4745004184320298
)
;

boundaryField
{
    ".*"
    {
        type            zeroGradient;
    }
}


// ************************************************************************* //
