// -*- C++ -*-
// File generated by PyFoam - sorry for the ugliness

FoamFile
{
 version 2.0;
 format ascii;
 class volVectorField;
 location "300";
 object U;
}

dimensions [ 0 1 -1 0 0 0 0 ];

internalField nonuniform List<vector> 459
(
  (0.0669781 0.0806508 0)
  (-0.15808 0.0155727 0)
  (-0.167525 0.0150371 0)
  (-0.196202 0.0122697 0)
  (-0.220916 0.00868101 0)
  (-0.241172 0.00475039 0)
  (-0.256277 0.000450707 0)
  (-0.265445 -0.00435612 0)
  (-0.267592 -0.00984882 0)
  (-0.261358 -0.016341 0)
  (-0.245349 -0.0242307 0)
  (-0.217211 -0.0338303 0)
  (-0.175864 -0.0467582 0)
  (-0.130722 -0.0665463 0)
  (-0.116278 -0.0937187 0)
  (0.082866 -0.0288684 0)
  (0.0391839 -0.0210446 0)
  (0.0551048 -0.0138816 0)
  (0.0724951 -0.00947256 0)
  (0.0815767 -0.00671786 0)
  (0.0855268 -0.00461651 0)
  (0.087084 -0.0029119 0)
  (0.087093 -0.00192297 0)
  (0.0862935 -0.00144129 0)
  (0.0852635 -0.00118166 0)
  (0.0841775 -0.000994312 0)
  (0.0829966 -0.000811617 0)
  (0.081591 -0.000551388 0)
  (0.079667 -4.02677e-05 0)
  (0.0765397 0.00111152 0)
  (0.0708575 0.00344884 0)
  (0.0611602 0.00605444 0)
  (0.0518115 0.00819248 0)
  (-0.0127265 0.025759 0)
  (0.270798 0.170524 0)
  (-0.164936 0.0472025 0)
  (-0.140431 0.0467788 0)
  (-0.172788 0.0416795 0)
  (-0.197763 0.0356241 0)
  (-0.218171 0.0289077 0)
  (-0.233628 0.0212174 0)
  (-0.243505 0.0121448 0)
  (-0.246787 0.00128309 0)
  (-0.242156 -0.0115769 0)
  (-0.229379 -0.025615 0)
  (-0.207813 -0.0402256 0)
  (-0.179048 -0.0563188 0)
  (-0.149943 -0.0758924 0)
  (-0.128577 -0.0914042 0)
  (-0.0962702 -0.0694661 0)
  (-0.0465442 -0.0531467 0)
  (0.0983089 -0.0581037 0)
  (0.0369977 -0.0341818 0)
  (0.0464599 -0.0191024 0)
  (0.0604209 -0.0115976 0)
  (0.0678559 -0.00725521 0)
  (0.071431 -0.00347962 0)
  (0.0732105 0.000316743 0)
  (0.0733061 0.00235326 0)
  (0.0730927 0.00311381 0)
  (0.0730841 0.00337383 0)
  (0.0731921 0.00350352 0)
  (0.0732848 0.00366046 0)
  (0.0733162 0.0040248 0)
  (0.0732174 0.00497559 0)
  (0.0723946 0.0074786 0)
  (0.0682055 0.014322 0)
  (0.0574937 0.0202566 0)
  (0.0534691 0.023874 0)
  (-0.0604784 0.0542966 0)
  (0.452967 0.258242 0)
  (-0.203525 0.0820246 0)
  (-0.107376 0.0779721 0)
  (-0.143402 0.0660809 0)
  (-0.165494 0.0548684 0)
  (-0.184048 0.0428973 0)
  (-0.198534 0.029358 0)
  (-0.208299 0.0137001 0)
  (-0.212166 -0.00434628 0)
  (-0.208297 -0.0245724 0)
  (-0.197068 -0.0462311 0)
  (-0.178816 -0.0676637 0)
  (-0.15587 -0.0880489 0)
  (-0.131922 -0.106153 0)
  (-0.107264 -0.114806 0)
  (-0.0756271 -0.102525 0)
  (-0.0450489 -0.0902919 0)
  (0.0777295 -0.0776271 0)
  (0.0243721 -0.0470196 0)
  (0.0330749 -0.0282361 0)
  (0.044817 -0.0192894 0)
  (0.0521189 -0.0135934 0)
  (0.0565977 -0.00881018 0)
  (0.0586824 -0.00651373 0)
  (0.0578959 -0.00464125 0)
  (0.0575597 -0.0037714 0)
  (0.0582205 -0.00336542 0)
  (0.0593076 -0.00312672 0)
  (0.0605056 -0.0029178 0)
  (0.0619119 -0.00258094 0)
  (0.0640954 -0.00174944 0)
  (0.0684836 0.00161632 0)
  (0.0673066 0.020151 0)
  (0.0531489 0.0332009 0)
  (0.0605344 0.0408928 0)
  (-0.103275 0.0827715 0)
  (0.60977 0.330443 0)
  (-0.25594 0.117349 0)
  (-0.069315 0.105325 0)
  (-0.110895 0.087713 0)
  (-0.127482 0.0737471 0)
  (-0.142534 0.0589913 0)
  (-0.155099 0.0419889 0)
  (-0.16435 0.0217668 0)
  (-0.168703 -0.00230347 0)
  (-0.165251 -0.0298301 0)
  (-0.155335 -0.0586463 0)
  (-0.140178 -0.085852 0)
  (-0.122312 -0.109592 0)
  (-0.103949 -0.128176 0)
  (-0.0846116 -0.137807 0)
  (-0.0621167 -0.133972 0)
  (-0.040783 -0.10783 0)
  (-0.0011789 -0.0147584 0)
  (0.0301025 -0.0674312 0)
  (0.023982 -0.0534156 0)
  (0.0263028 -0.0359369 0)
  (0.0328386 -0.0259124 0)
  (0.038877 -0.0191712 0)
  (0.044485 -0.0125431 0)
  (0.0520929 -0.00978232 0)
  (0.0627022 -0.00920881 0)
  (0.0725431 -0.00856002 0)
  (0.0809585 -0.00757884 0)
  (0.0874287 -0.0060297 0)
  (0.0910127 -0.00380985 0)
  (0.0901376 -0.000868034 0)
  (0.0836062 0.00300787 0)
  (0.0690307 0.00841435 0)
  (0.0552669 0.0308286 0)
  (0.0408811 0.0495002 0)
  (0.0664235 0.0627032 0)
  (-0.153926 0.106421 0)
  (0.739257 0.388675 0)
  (-0.308486 0.15086 0)
  (-0.0290357 0.122288 0)
  (-0.0759459 0.102216 0)
  (-0.0857435 0.0872974 0)
  (-0.0958237 0.0710554 0)
  (-0.105016 0.0516454 0)
  (-0.112521 0.0277516 0)
  (-0.116346 -0.0016147 0)
  (-0.112095 -0.0355201 0)
  (-0.102854 -0.0700617 0)
  (-0.0908237 -0.100699 0)
  (-0.078234 -0.125398 0)
  (-0.0664709 -0.143663 0)
  (-0.0549583 -0.154759 0)
  (-0.040591 -0.155905 0)
  (-0.0251731 -0.134321 0)
  (-0.00217775 -0.0878895 0)
  (0.0146951 -0.0751792 0)
  (0.0161333 -0.0562293 0)
  (0.016538 -0.0403596 0)
  (0.020118 -0.0308478 0)
  (0.0250072 -0.0247567 0)
  (0.0310043 -0.0198517 0)
  (0.0386201 -0.0163159 0)
  (0.0475003 -0.0144756 0)
  (0.0560185 -0.0130473 0)
  (0.063786 -0.0109095 0)
  (0.0703633 -0.00726844 0)
  (0.0749315 -0.00162233 0)
  (0.0761958 0.00564595 0)
  (0.0731037 0.0140682 0)
  (0.0655837 0.0242211 0)
  (0.0561473 0.041789 0)
  (0.0414018 0.0628165 0)
  (0.0739218 0.0853937 0)
  (-0.0486963 0.120844 0)
  (0.0454494 0.0167545 0)
  (-0.0788801 -0.0432901 0)
  (-0.295843 -0.0673853 0)
  (0.827564 0.439648 0)
  (-0.352988 0.17814 0)
  (0.00313977 0.121347 0)
  (-0.0373608 0.109705 0)
  (-0.0409926 0.0957914 0)
  (-0.0460968 0.0786143 0)
  (-0.0509116 0.0580496 0)
  (-0.0551756 0.0324061 0)
  (-0.0561555 -0.000813427 0)
  (-0.0482694 -0.0411835 0)
  (-0.0397005 -0.0798963 0)
  (-0.0319741 -0.111423 0)
  (-0.0259249 -0.134893 0)
  (-0.0220424 -0.151492 0)
  (-0.0196767 -0.162776 0)
  (-0.0142761 -0.166868 0)
  (-0.00834793 -0.145061 0)
  (0.000696462 -0.101874 0)
  (0.006002 -0.0742462 0)
  (0.00554127 -0.0548349 0)
  (0.00467016 -0.0418023 0)
  (0.00626101 -0.0341284 0)
  (0.0094831 -0.0293732 0)
  (0.0140813 -0.0258825 0)
  (0.0199194 -0.0235142 0)
  (0.0265443 -0.022315 0)
  (0.0333681 -0.0210966 0)
  (0.0401826 -0.0187217 0)
  (0.0467836 -0.0141666 0)
  (0.0527061 -0.00650633 0)
  (0.0575089 0.0042161 0)
  (0.058709 0.0163357 0)
  (0.0573791 0.029614 0)
  (0.0559841 0.0463869 0)
  (0.0506624 0.0669736 0)
  (0.0818232 0.0937604 0)
  (0.0438034 0.115171 0)
  (0.0997252 0.072099 0)
  (0.126647 0.0456167 0)
  (-0.151264 -0.0168446 0)
  (0.855344 0.485634 0)
  (-0.373076 0.168255 0)
  (0.023696 0.0736415 0)
  (0.0169965 0.106524 0)
  (0.0142296 0.106318 0)
  (0.00998568 0.085462 0)
  (0.00877068 0.0606019 0)
  (0.00839389 0.032553 0)
  (0.0155272 -0.00570184 0)
  (0.0278554 -0.0503684 0)
  (0.0335016 -0.0876871 0)
  (0.0342698 -0.115858 0)
  (0.031412 -0.135911 0)
  (0.0255402 -0.149956 0)
  (0.0175837 -0.160845 0)
  (0.012895 -0.167965 0)
  (0.00865119 -0.147443 0)
  (0.00579156 -0.104815 0)
  (0.000161275 -0.0711366 0)
  (-0.00438986 -0.0514301 0)
  (-0.00761952 -0.0409667 0)
  (-0.00865499 -0.0351639 0)
  (-0.00818331 -0.0317411 0)
  (-0.00651045 -0.0295883 0)
  (-0.00381472 -0.0284004 0)
  (-0.000342747 -0.0278688 0)
  (0.00369248 -0.0271346 0)
  (0.00820661 -0.0252322 0)
  (0.0133849 -0.0210891 0)
  (0.0193568 -0.0133805 0)
  (0.0273755 -0.000926669 0)
  (0.0350195 0.0135441 0)
  (0.0403123 0.027815 0)
  (0.0470076 0.0431745 0)
  (0.0526796 0.0600823 0)
  (0.0808106 0.0823405 0)
  (0.0900473 0.0902676 0)
  (0.130735 0.0554185 0)
  (0.175857 0.0416787 0)
  (-0.0311175 0.0972716 0)
  (0.954803 0.499493 0)
  (-0.1175 0.152429 0)
  (0.0937611 0.00231836 0)
  (0.140732 0.0412911 0)
  (0.120559 0.0719348 0)
  (0.101871 0.0626615 0)
  (0.0970384 0.0378267 0)
  (0.0984394 0.00672465 0)
  (0.110527 -0.0287858 0)
  (0.118671 -0.0606683 0)
  (0.115899 -0.0879819 0)
  (0.105405 -0.10947 0)
  (0.0899834 -0.125361 0)
  (0.0714552 -0.137327 0)
  (0.0517856 -0.148598 0)
  (0.0371371 -0.159229 0)
  (0.0237241 -0.140171 0)
  (0.0107406 -0.0964966 0)
  (-0.00619386 -0.0615982 0)
  (-0.0149055 -0.0456249 0)
  (-0.0210155 -0.0379266 0)
  (-0.0250833 -0.0337158 0)
  (-0.0278927 -0.0313173 0)
  (-0.0298345 -0.0300442 0)
  (-0.031133 -0.0295824 0)
  (-0.0319773 -0.0295494 0)
  (-0.0324323 -0.0293578 0)
  (-0.0323689 -0.0283542 0)
  (-0.0314657 -0.0258769 0)
  (-0.0291656 -0.0212434 0)
  (-0.0239735 -0.0136947 0)
  (-0.0099506 -0.00236868 0)
  (0.00058299 0.0108054 0)
  (0.0127385 0.0219191 0)
  (0.0242239 0.0307675 0)
  (0.048408 0.0415216 0)
  (0.0679744 0.0334163 0)
  (0.0877085 -0.00433914 0)
  (0.15164 0.0463745 0)
  (-0.486976 0.231687 0)
  (1.087 0.453176 0)
  (0.525281 0.2992 0)
  (0.531317 0.22131 0)
  (0.510022 0.19054 0)
  (0.425812 0.169622 0)
  (0.349886 0.13351 0)
  (0.305772 0.0905821 0)
  (0.282131 0.0479767 0)
  (0.262671 0.0071197 0)
  (0.235734 -0.0304518 0)
  (0.205452 -0.0609367 0)
  (0.173406 -0.0833493 0)
  (0.140234 -0.0990677 0)
  (0.106603 -0.111061 0)
  (0.0749419 -0.124202 0)
  (0.0524466 -0.140415 0)
  (0.0320693 -0.121842 0)
  (0.0119085 -0.0771717 0)
  (-0.0156976 -0.0473321 0)
  (-0.0275053 -0.038173 0)
  (-0.0358206 -0.0339131 0)
  (-0.0425051 -0.0312728 0)
  (-0.0484764 -0.0296138 0)
  (-0.0541414 -0.0286606 0)
  (-0.0598109 -0.0281986 0)
  (-0.0657232 -0.0278972 0)
  (-0.0720242 -0.0272401 0)
  (-0.0787992 -0.0255773 0)
  (-0.0861764 -0.0221922 0)
  (-0.0944554 -0.0163547 0)
  (-0.104095 -0.00734751 0)
  (-0.115266 0.00521655 0)
  (-0.125068 0.0203318 0)
  (-0.141803 0.0379223 0)
  (-0.170146 0.0577038 0)
  (-0.212017 0.0774167 0)
  (-0.272616 0.0907754 0)
  (-0.341768 0.0947594 0)
  (-0.416433 0.0909739 0)
  (-0.690408 0.0792136 0)
  (-0.365146 0.0810103 0)
  (0.17111 0.167208 0)
  (0.267184 0.167206 0)
  (0.261483 0.139382 0)
  (0.260736 0.0995005 0)
  (0.260749 0.0564488 0)
  (0.254265 0.0177214 0)
  (0.239613 -0.0134504 0)
  (0.215899 -0.0359016 0)
  (0.18585 -0.0513715 0)
  (0.151524 -0.0619488 0)
  (0.114504 -0.0705654 0)
  (0.0795706 -0.0836705 0)
  (0.0532829 -0.108262 0)
  (0.02481 -0.0871094 0)
  (0.0024886 -0.0420125 0)
  (-0.0304008 -0.025617 0)
  (-0.0433894 -0.0235829 0)
  (-0.0517402 -0.0231815 0)
  (-0.0594019 -0.023165 0)
  (-0.0670141 -0.0234908 0)
  (-0.0747562 -0.0240356 0)
  (-0.0829806 -0.0246548 0)
  (-0.0919598 -0.0250865 0)
  (-0.101761 -0.0248756 0)
  (-0.112186 -0.0233478 0)
  (-0.122716 -0.0196351 0)
  (-0.132447 -0.0127889 0)
  (-0.140171 -0.00192865 0)
  (-0.144748 0.0127812 0)
  (-0.14733 0.0313189 0)
  (-0.149328 0.0538583 0)
  (-0.152463 0.0790605 0)
  (-0.15768 0.101792 0)
  (-0.161712 0.109266 0)
  (-0.143932 0.0782271 0)
  (-0.0858496 -0.0342528 0)
  (-0.294352 -0.242059 0)
  (-0.165361 0.255324 0)
  (0.0931829 0.174311 0)
  (0.0942335 0.128914 0)
  (0.123313 0.112796 0)
  (0.15644 0.0874627 0)
  (0.180195 0.0582657 0)
  (0.190733 0.0356615 0)
  (0.188699 0.0225008 0)
  (0.177344 0.0130214 0)
  (0.158577 0.0051572 0)
  (0.134449 -0.00167162 0)
  (0.106019 -0.0106388 0)
  (0.0777246 -0.0350048 0)
  (0.0414742 -0.085094 0)
  (-0.0116991 -0.0455576 0)
  (-0.0310181 0.046847 0)
  (-0.0532553 0.0440769 0)
  (-0.0635693 0.0343379 0)
  (-0.0713223 0.0363721 0)
  (-0.078761 0.0401063 0)
  (-0.0857947 0.0427433 0)
  (-0.092405 0.0446652 0)
  (-0.0987687 0.0459826 0)
  (-0.105032 0.0466164 0)
  (-0.111233 0.0465413 0)
  (-0.117275 0.045763 0)
  (-0.122933 0.0442227 0)
  (-0.127726 0.041648 0)
  (-0.130481 0.0387051 0)
  (-0.129226 0.0392352 0)
  (-0.121941 0.0454828 0)
  (-0.107592 0.0584704 0)
  (-0.0870455 0.0778028 0)
  (-0.0622697 0.0979343 0)
  (-0.0368698 0.109239 0)
  (0.00906652 0.0897566 0)
  (0.145381 0.00854345 0)
  (-0.205322 -0.15691 0)
  (-0.16745 -0.380889 0)
  (-0.464123 -0.111687 0)
  (-0.34927 0.134548 0)
  (-0.186677 0.027983 0)
  (-0.108864 0.00709283 0)
  (-0.0169681 0.0130878 0)
  (0.0610852 -0.00914446 0)
  (0.10817 -0.0363382 0)
  (0.138603 -0.0624398 0)
  (0.152031 -0.0871357 0)
  (0.152158 -0.107882 0)
  (0.142439 -0.125203 0)
  (0.125902 -0.141615 0)
  (0.104116 -0.159777 0)
  (0.0796352 -0.184456 0)
  (0.0150034 -0.211398 0)
  (-0.0718002 -0.188386 0)
  (-0.0685561 -0.173349 0)
  (-0.0672215 -0.183749 0)
  (-0.0751689 -0.184356 0)
  (-0.0856308 -0.182864 0)
  (-0.0950439 -0.18103 0)
  (-0.103556 -0.178965 0)
  (-0.111386 -0.176279 0)
  (-0.118534 -0.1726 0)
  (-0.124921 -0.167591 0)
  (-0.130373 -0.160927 0)
  (-0.134567 -0.152235 0)
  (-0.137024 -0.141006 0)
  (-0.137135 -0.126505 0)
  (-0.133956 -0.108887 0)
  (-0.125326 -0.0899971 0)
  (-0.107726 -0.0696409 0)
  (-0.0786022 -0.0470914 0)
  (-0.0395603 -0.0214589 0)
  (0.026929 0.0104336 0)
  (0.0835789 0.0103881 0)
  (0.137577 -0.0171902 0)
  (0.188275 -0.067374 0)
  (-0.151372 -0.143012 0)
)
;

boundaryField
{
  floor
  {
    type noSlip;
  }
  ceiling
  {
    type noSlip;
  }
  sWall
  {
    type noSlip;
  }
  nWall
  {
    type noSlip;
  }
  sideWalls
  {
    type empty;
  }
  glass1
  {
    type noSlip;
  }
  glass2
  {
    type noSlip;
  }
  sun
  {
    type noSlip;
  }
  heatsource1
  {
    type noSlip;
  }
  heatsource2
  {
    type noSlip;
  }
  Table_master
  {
    type noSlip;
  }
  Table_slave
  {
    type noSlip;
  }
  inlet
  {
    type fixedValue;
    value uniform (0.277164 -0.114805 0);
  }
  outlet
  {
    type zeroGradient;
  }
} 	// ************************************************************************* //

