/*--------------------------------*- C++ -*----------------------------------*\
  =========                 |
  \\      /  F ield         | OpenFOAM: The Open Source CFD Toolbox
   \\    /   O peration     | Website:  https://openfoam.org
    \\  /    A nd           | Version:  6
     \\/     M anipulation  |
\*---------------------------------------------------------------------------*/
FoamFile
{
    version     2.0;
    format      ascii;
    class       volScalarField;
    location    "700";
    object      nut;
}
// * * * * * * * * * * * * * * * * * * * * * * * * * * * * * * * * * * * * * //

dimensions      [0 2 -1 0 0 0 0];

internalField   nonuniform List<scalar> 
459
(
0.000800565
0.000844635
0.000841616
0.000870796
0.000895747
0.000917066
0.000935754
0.000952792
0.000969226
0.000984448
0.00099505
0.000999615
0.000997935
0.000992699
0.000986977
0.00058114
0.000569953
0.000547833
0.00052693
0.000507773
0.000489365
0.000470672
0.000452869
0.000436521
0.000421519
0.000407637
0.000394691
0.000382496
0.000370811
0.000359273
0.000347332
0.000334012
0.000325108
0.000301544
0.00117404
0.00203029
0.00177242
0.00204066
0.00221409
0.00239645
0.00257702
0.00274024
0.00286246
0.00293732
0.00297397
0.00293881
0.00278163
0.00242977
0.00179161
0.00102009
0.000910723
0.000747262
0.000995745
0.00114717
0.00125731
0.0013211
0.00132641
0.00117755
0.00108579
0.00101156
0.00094578
0.000886327
0.00083143
0.000778762
0.000724806
0.000666796
0.000614729
0.000568415
0.000681967
0.000388505
0.00151097
0.00290681
0.00197249
0.00277981
0.0030033
0.00316043
0.00327679
0.00336387
0.0034306
0.00348347
0.00352906
0.00354209
0.00349206
0.00335205
0.00308334
0.0025198
0.00113195
0.000858832
0.0013615
0.00162102
0.00180567
0.00192016
0.00181973
0.000582719
0.000528115
0.000484324
0.000449094
0.000420469
0.000396956
0.000377546
0.000361766
0.000349938
0.000392334
0.000459182
0.000776436
0.000454308
0.00185951
0.00422688
0.00188056
0.00302963
0.00332864
0.00341296
0.00343184
0.00342915
0.00343653
0.00346623
0.00351421
0.00355181
0.00354881
0.00349518
0.00342076
0.00339137
0.00333769
0.00100614
0.00159017
0.00197317
0.00221275
0.00237847
0.00247994
0.00227536
0.000642316
0.000614352
0.000600604
0.000591406
0.00058026
0.000563006
0.000544158
0.000522664
0.000495174
0.000466942
0.00047559
0.000925304
0.000506451
0.00222259
0.00604306
0.00220766
0.00284117
0.00340973
0.00347183
0.00342385
0.00335644
0.00332924
0.00336101
0.00343916
0.00351333
0.00353229
0.00345808
0.00330308
0.00324898
0.00353507
0.00338019
0.00302773
0.00287085
0.002809
0.00282029
0.00285948
0.00285142
0.00261334
0.00256434
0.00255092
0.0025238
0.00246233
0.00235349
0.00213221
0.00183304
0.0014872
0.00112145
0.000824127
0.000889528
0.000633089
0.000659874
0.000783396
0.000870126
0.00260337
0.00805087
0.00371726
0.0024954
0.00313026
0.00337003
0.00337899
0.00329765
0.00322939
0.00326643
0.00339956
0.00352174
0.00357578
0.00349468
0.00324164
0.0030534
0.00337838
0.00348508
0.00328023
0.00309445
0.00296856
0.00292316
0.00294151
0.00298658
0.00302014
0.00305471
0.00306776
0.00304987
0.00299937
0.00291706
0.00276543
0.00251006
0.00215059
0.00170778
0.0012855
0.000954107
0.000793653
0.000744155
0.0011243
0.000907677
0.00298896
0.00969898
0.00668069
0.0036163
0.00274333
0.00269317
0.00291751
0.00313397
0.00316875
0.00327714
0.0034373
0.00357074
0.00363887
0.00355655
0.00323359
0.00293154
0.00328011
0.00351154
0.00334586
0.00311688
0.00295233
0.00289728
0.0029147
0.00296174
0.00301218
0.00304877
0.00305959
0.00304724
0.00301869
0.0029828
0.00294171
0.00277677
0.00246397
0.00205063
0.00165455
0.0012751
0.00106426
0.00104023
0.00113776
0.00100409
0.00308799
0.00953233
0.00797267
0.00647613
0.00493419
0.00386159
0.00339371
0.00336572
0.00345366
0.00350892
0.00358469
0.00367031
0.00371583
0.00360514
0.00319272
0.00278516
0.0032468
0.00360811
0.00338711
0.0030875
0.00291914
0.0028653
0.00286252
0.00287263
0.00287886
0.00287411
0.00285832
0.00284076
0.00283546
0.0028575
0.0029189
0.00298004
0.00273324
0.00239363
0.00210961
0.00200376
0.00218594
0.0028592
0.00390725
0.00160652
0.00303336
0.0036801
0.00422216
0.00444123
0.0044108
0.0041577
0.00388955
0.00373092
0.00364952
0.00364954
0.00370389
0.0037691
0.00377977
0.00359656
0.0030306
0.00252579
0.00325313
0.00374924
0.00341061
0.00308195
0.00292121
0.00285148
0.00280706
0.00276101
0.00270422
0.00263505
0.00255658
0.00247478
0.00239514
0.00231988
0.00224749
0.00217491
0.00211134
0.0020805
0.00211024
0.00218938
0.00224276
0.00219284
0.00205424
0.00147789
0.00232708
0.00419771
0.00443338
0.00439993
0.00429258
0.00419948
0.00413832
0.0040756
0.00400793
0.00391436
0.0037492
0.00337761
0.00260605
0.00208108
0.00333882
0.00393054
0.00345816
0.0031432
0.00301254
0.00293526
0.00285786
0.00276856
0.00266628
0.00255417
0.00243828
0.0023266
0.00222845
0.00215421
0.00211454
0.0021121
0.00213237
0.00217224
0.00222306
0.00225301
0.00221027
0.00206742
0.00183069
0.00120035
0.00245863
0.00486962
0.00502195
0.00485017
0.00466035
0.00447739
0.00427463
0.00405466
0.0037513
0.00339552
0.00300663
0.00253321
0.00183733
0.00146681
0.00302787
0.00329424
0.00300654
0.00282884
0.00274758
0.00267466
0.00259018
0.00249889
0.00240964
0.00233193
0.00227354
0.00223802
0.00222333
0.00222163
0.00223291
0.00227134
0.00233309
0.00241081
0.00249047
0.00255902
0.00257565
0.00261816
0.00231243
0.00121464
0.00211512
0.00223823
0.00234128
0.00248485
0.00232942
0.002182
0.00199592
0.0018375
0.00168404
0.00153701
0.0014141
0.00130588
0.00120386
0.00110217
0.000971269
0.000788271
0.000822243
0.000825339
0.000802519
0.000792122
0.000787271
0.000784988
0.000785283
0.000788964
0.000796711
0.000808945
0.0008259
0.000847824
0.000875254
0.000909405
0.000950855
0.000998625
0.00105319
0.00111485
0.00118384
0.00127594
0.00130934
0.00128325
0.00119957
0.00110953
)
;

boundaryField
{
    floor
    {
        type            nutkWallFunction;
        Cmu             0.09;
        kappa           0.41;
        E               9.8;
        value           nonuniform List<scalar> 
29
(
0.000119178
7.00018e-05
6.85894e-05
6.57999e-05
6.31522e-05
6.07146e-05
5.83616e-05
5.59607e-05
5.36632e-05
5.15433e-05
4.95892e-05
4.77731e-05
4.60723e-05
4.44635e-05
4.29159e-05
4.13816e-05
3.9787e-05
3.79997e-05
3.67999e-05
3.36031e-05
3.3603e-05
4.52557e-05
5.38478e-05
6.05445e-05
0.000119178
7.00018e-05
9.05045e-05
0.000103967
0.000121436
)
;
    }
    ceiling
    {
        type            nutkWallFunction;
        Cmu             0.09;
        kappa           0.41;
        E               9.8;
        value           nonuniform List<scalar> 
43
(
0.000245702
0.000258973
0.000270025
0.000285464
0.000268914
0.000253084
0.000232924
0.000215593
0.000198649
0.000182255
0.000168419
0.000156125
0.000144431
0.000132666
0.000117347
9.54748e-05
9.95706e-05
9.99532e-05
9.72023e-05
9.59461e-05
9.53595e-05
9.50832e-05
9.51187e-05
9.55637e-05
9.64998e-05
9.79758e-05
0.000100017
0.00010265
0.000105933
0.000110003
0.00011492
0.000120556
0.000126956
0.000134144
0.000142132
0.000152716
0.000156533
0.000153552
0.000143946
0.000133526
0.000343549
0.000410334
0.000282421
)
;
    }
    sWall
    {
        type            nutkWallFunction;
        Cmu             0.09;
        kappa           0.41;
        E               9.8;
        value           uniform 0.00024577;
    }
    nWall
    {
        type            nutkWallFunction;
        Cmu             0.09;
        kappa           0.41;
        E               9.8;
        value           nonuniform List<scalar> 6(0.000105321 0.0001098 0.000121203 0.000144047 0.000145693 0.000133536);
    }
    sideWalls
    {
        type            empty;
    }
    glass1
    {
        type            nutkWallFunction;
        Cmu             0.09;
        kappa           0.41;
        E               9.8;
        value           nonuniform List<scalar> 9(9.69646e-05 0.000141141 0.000179596 0.000218378 0.000257941 0.000298696 0.000339331 0.000349687 0.000344);
    }
    glass2
    {
        type            nutkWallFunction;
        Cmu             0.09;
        kappa           0.41;
        E               9.8;
        value           nonuniform List<scalar> 2(0.000190145 0.00017572);
    }
    sun
    {
        type            nutkWallFunction;
        Cmu             0.09;
        kappa           0.41;
        E               9.8;
        value           nonuniform List<scalar> 
14
(
9.69603e-05
0.000102263
0.0001019
0.000105395
0.000108372
0.000110908
0.000113126
0.000115143
0.000117085
0.00011888
0.000120128
0.000120665
0.000120467
0.000119851
)
;
    }
    heatsource1
    {
        type            nutkWallFunction;
        Cmu             0.09;
        kappa           0.41;
        E               9.8;
        value           nonuniform List<scalar> 3(7.97921e-05 9.4888e-05 0.000105318);
    }
    heatsource2
    {
        type            nutkWallFunction;
        Cmu             0.09;
        kappa           0.41;
        E               9.8;
        value           nonuniform List<scalar> 4(0.000123067 0.000110153 0.000110153 0.000136113);
    }
    Table_master
    {
        type            nutkWallFunction;
        Cmu             0.09;
        kappa           0.41;
        E               9.8;
        value           nonuniform List<scalar> 9(7.01943e-05 6.33078e-05 5.77218e-05 5.31824e-05 4.94615e-05 4.63811e-05 4.38209e-05 4.17271e-05 4.01501e-05);
    }
    Table_slave
    {
        type            nutkWallFunction;
        Cmu             0.09;
        kappa           0.41;
        E               9.8;
        value           nonuniform List<scalar> 9(7.76204e-05 7.41463e-05 7.24314e-05 7.12815e-05 6.9885e-05 6.77169e-05 6.5339e-05 6.2615e-05 5.91109e-05);
    }
    inlet
    {
        type            calculated;
        value           uniform 0.000100623;
    }
    outlet
    {
        type            calculated;
        value           nonuniform List<scalar> 2(0.00211512 0.00223823);
    }
}


// ************************************************************************* //
