// -*- C++ -*-
// File generated by PyFoam - sorry for the ugliness

FoamFile
{
 version 2.0;
 format ascii;
 class volScalarField;
 location "700";
 object T;
}

dimensions [ 0 0 0 1 0 0 0 ];

internalField nonuniform List<scalar> 459
(
  302.577
  302.268
  302.257
  302.256
  302.254
  302.252
  302.25
  302.248
  302.246
  302.243
  302.238
  302.231
  302.223
  302.214
  302.208
  302.292
  302.274
  302.269
  302.267
  302.266
  302.265
  302.264
  302.263
  302.263
  302.262
  302.261
  302.259
  302.258
  302.256
  302.255
  302.253
  302.251
  302.249
  302.262
  302.802
  302.298
  302.276
  302.28
  302.284
  302.288
  302.291
  302.292
  302.291
  302.288
  302.279
  302.263
  302.242
  302.218
  302.198
  302.19
  302.191
  302.265
  302.259
  302.257
  302.255
  302.252
  302.249
  302.244
  302.239
  302.235
  302.23
  302.225
  302.22
  302.216
  302.212
  302.208
  302.207
  302.208
  302.211
  302.242
  303.03
  302.344
  302.303
  302.315
  302.329
  302.343
  302.355
  302.364
  302.368
  302.366
  302.352
  302.325
  302.286
  302.242
  302.205
  302.191
  302.197
  302.258
  302.261
  302.264
  302.264
  302.262
  302.259
  302.251
  302.243
  302.235
  302.227
  302.22
  302.212
  302.205
  302.198
  302.192
  302.19
  302.19
  302.193
  302.231
  303.25
  302.404
  302.33
  302.348
  302.373
  302.4
  302.425
  302.445
  302.458
  302.459
  302.441
  302.401
  302.341
  302.271
  302.212
  302.188
  302.201
  302.239
  302.252
  302.268
  302.276
  302.279
  302.278
  302.276
  302.274
  302.271
  302.269
  302.266
  302.263
  302.259
  302.254
  302.249
  302.241
  302.218
  302.199
  302.191
  302.229
  303.457
  302.484
  302.36
  302.372
  302.405
  302.442
  302.48
  302.514
  302.539
  302.547
  302.53
  302.478
  302.398
  302.302
  302.216
  302.183
  302.201
  302.24
  302.265
  302.284
  302.294
  302.296
  302.296
  302.294
  302.292
  302.29
  302.288
  302.285
  302.28
  302.274
  302.267
  302.259
  302.248
  302.23
  302.208
  302.193
  302.218
  302.285
  302.314
  302.325
  303.635
  302.588
  302.415
  302.394
  302.423
  302.463
  302.506
  302.55
  302.59
  302.612
  302.598
  302.539
  302.443
  302.326
  302.217
  302.176
  302.2
  302.246
  302.282
  302.303
  302.311
  302.314
  302.313
  302.312
  302.31
  302.308
  302.305
  302.301
  302.295
  302.287
  302.277
  302.266
  302.253
  302.237
  302.216
  302.198
  302.208
  302.237
  302.248
  302.286
  303.775
  302.763
  302.578
  302.488
  302.47
  302.486
  302.519
  302.559
  302.612
  302.648
  302.633
  302.566
  302.46
  302.332
  302.21
  302.17
  302.199
  302.255
  302.3
  302.321
  302.328
  302.33
  302.329
  302.329
  302.328
  302.326
  302.323
  302.318
  302.311
  302.3
  302.286
  302.271
  302.257
  302.242
  302.224
  302.206
  302.205
  302.215
  302.224
  302.257
  304.008
  303.261
  303.052
  302.861
  302.725
  302.653
  302.63
  302.638
  302.673
  302.684
  302.642
  302.555
  302.438
  302.305
  302.182
  302.158
  302.201
  302.27
  302.32
  302.338
  302.343
  302.345
  302.346
  302.346
  302.345
  302.343
  302.341
  302.336
  302.329
  302.32
  302.307
  302.288
  302.273
  302.26
  302.247
  302.235
  302.238
  302.259
  302.291
  302.467
  304.335
  304.011
  303.7
  303.423
  303.198
  303.032
  302.924
  302.86
  302.811
  302.721
  302.606
  302.481
  302.354
  302.227
  302.121
  302.144
  302.212
  302.296
  302.34
  302.354
  302.359
  302.361
  302.362
  302.364
  302.364
  302.364
  302.363
  302.361
  302.358
  302.355
  302.354
  302.358
  302.365
  302.381
  302.409
  302.447
  302.497
  302.543
  302.572
  302.639
  295.689
  299.601
  301.324
  301.938
  302.187
  302.282
  302.296
  302.291
  302.262
  302.216
  302.158
  302.09
  302.036
  302.151
  302.244
  302.329
  302.36
  302.371
  302.375
  302.378
  302.38
  302.383
  302.386
  302.388
  302.391
  302.394
  302.397
  302.401
  302.406
  302.412
  302.421
  302.437
  302.46
  302.49
  302.523
  302.55
  302.564
  302.577
  296.497
  299.545
  300.8
  301.423
  301.738
  301.884
  301.941
  301.964
  301.976
  301.979
  301.972
  301.958
  301.971
  302.216
  302.321
  302.363
  302.383
  302.391
  302.394
  302.397
  302.4
  302.403
  302.406
  302.409
  302.413
  302.416
  302.421
  302.425
  302.43
  302.436
  302.444
  302.456
  302.472
  302.493
  302.516
  302.537
  302.528
  302.558
  298.482
  298.419
  298.414
  300.309
  301.013
  301.409
  301.657
  301.744
  301.787
  301.808
  301.826
  301.842
  301.857
  301.875
  301.961
  302.363
  302.399
  302.413
  302.422
  302.426
  302.429
  302.432
  302.435
  302.437
  302.439
  302.441
  302.443
  302.445
  302.447
  302.449
  302.451
  302.454
  302.458
  302.463
  302.472
  302.489
  302.501
  302.508
  302.509
  302.545
)
;

boundaryField
{
  floor
  {
    type wallHeatTransfer;
    Tinf uniform 305.2;
    alphaWall uniform 0.24;
    value nonuniform List<scalar> 29
(
  302.545
  302.771
  302.763
  302.773
  302.784
  302.796
  302.809
  302.822
  302.836
  302.849
  302.862
  302.874
  302.885
  302.897
  302.908
  302.919
  302.932
  302.947
  302.957
  302.999
  302.999
  302.878
  302.809
  302.767
  302.545
  302.771
  302.671
  302.626
  302.568
)
;
  }
  ceiling
  {
    type wallHeatTransfer;
    Tinf uniform 303.2;
    alphaWall uniform 0.24;
    value nonuniform List<scalar> 43
(
  298.772
  298.7
  298.685
  300.465
  301.138
  301.517
  301.758
  301.845
  301.892
  301.92
  301.943
  301.966
  301.987
  302.012
  302.102
  302.474
  302.503
  302.514
  302.524
  302.529
  302.532
  302.535
  302.537
  302.538
  302.54
  302.54
  302.54
  302.54
  302.54
  302.539
  302.538
  302.537
  302.537
  302.539
  302.543
  302.554
  302.564
  302.572
  302.576
  302.613
  304.282
  303.979
  296.86
)
;
  }
  sWall
  {
    type wallHeatTransfer;
    Tinf uniform 315.2;
    alphaWall uniform 0.36;
    value uniform 299.982;
  }
  nWall
  {
    type wallHeatTransfer;
    Tinf uniform 307.2;
    alphaWall uniform 0.36;
    value nonuniform List<scalar> 6
(
  303.178
  303.122
  303.039
  303.221
  303.198
  303.232
)
;
  }
  sideWalls
  {
    type empty;
  }
  glass1
  {
    type wallHeatTransfer;
    Tinf uniform 315.2;
    alphaWall uniform 4.3;
    value nonuniform List<scalar> 9
(
  311.863
  311.084
  310.556
  310.125
  309.763
  309.447
  309.171
  309.215
  309.434
)
;
  }
  glass2
  {
    type wallHeatTransfer;
    Tinf uniform 307.2;
    alphaWall uniform 4.3;
    value nonuniform List<scalar> 2
(
  305.319
  305.465
)
;
  }
  sun
  {
    type wallHeatTransfer;
    Tinf uniform 305.2;
    alphaWall uniform 0.24;
    value nonuniform List<scalar> 14
(
  302.922
  302.639
  302.63
  302.62
  302.611
  302.603
  302.596
  302.59
  302.583
  302.577
  302.57
  302.563
  302.556
  302.549
)
;
  }
  heatsource1
  {
    type fixedGradient;
    gradient uniform 0;
  }
  heatsource2
  {
    type fixedGradient;
    gradient uniform 0;
  }
  Table_master
  {
    type zeroGradient;
  }
  Table_slave
  {
    type zeroGradient;
  }
  inlet
  {
    type fixedValue;
    value uniform 290.15;
  }
  outlet
  {
    type zeroGradient;
  }
} 	// ************************************************************************* //

