// -*- C++ -*-
// File generated by PyFoam - sorry for the ugliness

FoamFile
{
 version 2.0;
 format ascii;
 class volVectorField;
 location "2200";
 object U;
}

dimensions [ 0 1 -1 0 0 0 0 ];

internalField nonuniform List<vector> 459
(
  (0.033437 0.088184 0)
  (-0.171559 0.0264546 0)
  (-0.196688 0.017881 0)
  (-0.227414 0.0119407 0)
  (-0.2491 0.0054414 0)
  (-0.260802 -0.00135372 0)
  (-0.261086 -0.00845452 0)
  (-0.249265 -0.0158253 0)
  (-0.226259 -0.0227479 0)
  (-0.194061 -0.0281368 0)
  (-0.156062 -0.0311675 0)
  (-0.115981 -0.0315653 0)
  (-0.0773323 -0.0297092 0)
  (-0.0451685 -0.0270664 0)
  (-0.0345583 -0.0254206 0)
  (-0.00254577 0.00872169 0)
  (-0.0281 -0.0194134 0)
  (-0.00282529 -0.029213 0)
  (0.0212405 -0.0216703 0)
  (0.0382131 -0.0145537 0)
  (0.0510542 -0.00927935 0)
  (0.0587585 -0.0055252 0)
  (0.0626299 -0.00356534 0)
  (0.0643777 -0.00272073 0)
  (0.0652795 -0.00231205 0)
  (0.0658486 -0.00204638 0)
  (0.0661581 -0.00183141 0)
  (0.0661455 -0.00157905 0)
  (0.0656074 -0.00111532 0)
  (0.0639798 -5.87475e-05 0)
  (0.0600595 0.0021198 0)
  (0.0525452 0.00438104 0)
  (0.046132 0.00616927 0)
  (-0.015269 0.0226795 0)
  (0.20982 0.180162 0)
  (-0.158659 0.0695843 0)
  (-0.157207 0.0529285 0)
  (-0.188613 0.0404044 0)
  (-0.209863 0.0263627 0)
  (-0.221634 0.0108745 0)
  (-0.222449 -0.00615961 0)
  (-0.211593 -0.0238792 0)
  (-0.190553 -0.0398775 0)
  (-0.161644 -0.0517418 0)
  (-0.128303 -0.0579053 0)
  (-0.0939602 -0.0580989 0)
  (-0.0617479 -0.0529406 0)
  (-0.0351225 -0.0439884 0)
  (-0.0184 -0.0330403 0)
  (-0.00469186 -0.0150024 0)
  (-0.00475769 0.0172263 0)
  (0.0733892 0.0363468 0)
  (0.0311626 -0.0200132 0)
  (0.0385898 -0.0333257 0)
  (0.0503544 -0.028737 0)
  (0.0594772 -0.0199398 0)
  (0.0656277 -0.0118134 0)
  (0.0681245 -0.00492995 0)
  (0.0685098 -0.00111506 0)
  (0.0684143 0.000496726 0)
  (0.0684951 0.00122931 0)
  (0.0686679 0.00167845 0)
  (0.0687902 0.00205404 0)
  (0.0688191 0.00253276 0)
  (0.068701 0.00345664 0)
  (0.0678936 0.00574411 0)
  (0.0639089 0.0121019 0)
  (0.0538492 0.0173584 0)
  (0.0501839 0.0207402 0)
  (-0.057125 0.0489596 0)
  (0.371026 0.269066 0)
  (-0.17375 0.11023 0)
  (-0.117506 0.0851298 0)
  (-0.147353 0.0630107 0)
  (-0.165854 0.0400132 0)
  (-0.176239 0.015003 0)
  (-0.176039 -0.0124578 0)
  (-0.164334 -0.0404976 0)
  (-0.14377 -0.0648663 0)
  (-0.117266 -0.0819297 0)
  (-0.0883264 -0.0897783 0)
  (-0.0596348 -0.0887101 0)
  (-0.0332575 -0.0798328 0)
  (-0.0112863 -0.0649521 0)
  (0.00512098 -0.0446392 0)
  (0.0165516 -0.0190958 0)
  (0.0226777 0.0174927 0)
  (0.120332 -0.0368595 0)
  (0.078805 -0.0439902 0)
  (0.0728297 -0.0417186 0)
  (0.0746659 -0.0341787 0)
  (0.0760008 -0.0246827 0)
  (0.0767982 -0.0165118 0)
  (0.0750312 -0.0132318 0)
  (0.0705735 -0.00931487 0)
  (0.067479 -0.00718488 0)
  (0.0660913 -0.00596526 0)
  (0.0654934 -0.00518763 0)
  (0.0651977 -0.00464717 0)
  (0.0652215 -0.00414541 0)
  (0.0660385 -0.00331016 0)
  (0.0688636 -0.000134239 0)
  (0.0665326 0.0173583 0)
  (0.0521996 0.0295003 0)
  (0.0570394 0.0372512 0)
  (-0.094563 0.075602 0)
  (0.515825 0.340325 0)
  (-0.206724 0.146106 0)
  (-0.0763594 0.112141 0)
  (-0.103593 0.0817368 0)
  (-0.116285 0.0519601 0)
  (-0.122351 0.0188511 0)
  (-0.117466 -0.0189183 0)
  (-0.102615 -0.0572413 0)
  (-0.0821526 -0.0886717 0)
  (-0.0591389 -0.109171 0)
  (-0.0366136 -0.11725 0)
  (-0.0157266 -0.114458 0)
  (0.00309407 -0.102132 0)
  (0.0187838 -0.0829869 0)
  (0.0323199 -0.0592592 0)
  (0.0470821 -0.0321675 0)
  (0.0696208 -0.00239054 0)
  (0.101765 0.0124994 0)
  (0.107893 -0.029073 0)
  (0.0924559 -0.0381708 0)
  (0.083131 -0.0353396 0)
  (0.0784923 -0.02961 0)
  (0.0752708 -0.0222161 0)
  (0.0735621 -0.0132876 0)
  (0.0752913 -0.00777707 0)
  (0.0797986 -0.00599844 0)
  (0.0834752 -0.00498279 0)
  (0.0858365 -0.00419077 0)
  (0.0871221 -0.00321182 0)
  (0.0866956 -0.00177859 0)
  (0.0835612 0.000303633 0)
  (0.0764838 0.00332716 0)
  (0.0624881 0.00786437 0)
  (0.0508675 0.0286343 0)
  (0.0384048 0.0455985 0)
  (0.0607881 0.0582423 0)
  (-0.139754 0.0981703 0)
  (0.639925 0.395388 0)
  (-0.247263 0.175302 0)
  (-0.03668 0.127063 0)
  (-0.0579049 0.0917642 0)
  (-0.0619916 0.0579115 0)
  (-0.059739 0.0183627 0)
  (-0.0433343 -0.0293838 0)
  (-0.0241562 -0.0752783 0)
  (-0.00556039 -0.109593 0)
  (0.0110331 -0.129806 0)
  (0.0237332 -0.135224 0)
  (0.0337754 -0.129562 0)
  (0.0415053 -0.115187 0)
  (0.0477919 -0.0947236 0)
  (0.0538371 -0.0708054 0)
  (0.0615413 -0.0464822 0)
  (0.0736063 -0.0276378 0)
  (0.0843048 -0.0257932 0)
  (0.0853507 -0.033872 0)
  (0.0782846 -0.0337807 0)
  (0.0696071 -0.029472 0)
  (0.0628467 -0.0242833 0)
  (0.0579779 -0.0185938 0)
  (0.0552879 -0.0124451 0)
  (0.055261 -0.00678317 0)
  (0.0575254 -0.00412676 0)
  (0.0600574 -0.00310814 0)
  (0.0624625 -0.00220655 0)
  (0.0646183 -0.000417473 0)
  (0.0660844 0.00273871 0)
  (0.06567 0.00732908 0)
  (0.0628268 0.0135105 0)
  (0.0568344 0.0219659 0)
  (0.049707 0.0378147 0)
  (0.0383383 0.0569585 0)
  (0.0681831 0.0781156 0)
  (-0.0381403 0.110245 0)
  (0.0473977 0.024839 0)
  (-0.0692355 -0.0376281 0)
  (-0.285952 -0.0611984 0)
  (0.729157 0.441057 0)
  (-0.286474 0.19452 0)
  (-0.00692777 0.12128 0)
  (-0.00971211 0.0896379 0)
  (-0.000800963 0.0546332 0)
  (0.0187679 0.00626936 0)
  (0.0486558 -0.0490487 0)
  (0.0684545 -0.0931813 0)
  (0.0808775 -0.122962 0)
  (0.0865905 -0.138343 0)
  (0.0869245 -0.140618 0)
  (0.0836715 -0.13236 0)
  (0.0783102 -0.116356 0)
  (0.0724082 -0.0954902 0)
  (0.0674122 -0.0724986 0)
  (0.0645895 -0.0503332 0)
  (0.0646884 -0.0330106 0)
  (0.0647098 -0.0255077 0)
  (0.0607364 -0.0248604 0)
  (0.0529123 -0.0241265 0)
  (0.0442974 -0.0214873 0)
  (0.0372876 -0.0180593 0)
  (0.0323748 -0.0143803 0)
  (0.0298022 -0.0106047 0)
  (0.0296295 -0.00751119 0)
  (0.0313891 -0.00641443 0)
  (0.0340496 -0.00627904 0)
  (0.0372156 -0.00580034 0)
  (0.0406937 -0.00394801 0)
  (0.0443329 0.000123719 0)
  (0.0473118 0.00650684 0)
  (0.0488128 0.0148554 0)
  (0.0491021 0.0254276 0)
  (0.0497513 0.0401139 0)
  (0.0477535 0.0587105 0)
  (0.076371 0.0834677 0)
  (0.0479198 0.102829 0)
  (0.0975267 0.068426 0)
  (0.122202 0.0447568 0)
  (-0.138407 -0.00987294 0)
  (0.785816 0.482824 0)
  (-0.304292 0.178996 0)
  (0.0239428 0.065135 0)
  (0.0575911 0.0552358 0)
  (0.0837117 0.0299093 0)
  (0.127409 -0.0236264 0)
  (0.156142 -0.0719377 0)
  (0.170151 -0.106439 0)
  (0.171391 -0.126944 0)
  (0.162497 -0.134796 0)
  (0.146591 -0.131797 0)
  (0.126766 -0.120373 0)
  (0.105703 -0.103271 0)
  (0.0856346 -0.0831391 0)
  (0.0681675 -0.0621801 0)
  (0.0542792 -0.0427349 0)
  (0.0442241 -0.0277014 0)
  (0.0364316 -0.0195077 0)
  (0.0286551 -0.0167379 0)
  (0.0203741 -0.0156417 0)
  (0.0127085 -0.0141895 0)
  (0.00671701 -0.0124907 0)
  (0.00269037 -0.0108241 0)
  (0.000738593 -0.00931852 0)
  (0.000794644 -0.00844829 0)
  (0.0023715 -0.00870653 0)
  (0.0048017 -0.00939871 0)
  (0.00784787 -0.00958966 0)
  (0.0115658 -0.00837759 0)
  (0.0161171 -0.00471667 0)
  (0.0226816 0.0023464 0)
  (0.0287765 0.0114979 0)
  (0.0347548 0.0221121 0)
  (0.0425763 0.0349787 0)
  (0.0505594 0.0499048 0)
  (0.0767669 0.0699303 0)
  (0.0896475 0.0776742 0)
  (0.126411 0.0510146 0)
  (0.168661 0.0418833 0)
  (-0.0322315 0.0952608 0)
  (0.893717 0.482338 0)
  (-0.0565117 0.157427 0)
  (0.119318 -0.0235295 0)
  (0.207233 -0.0592837 0)
  (0.25279 -0.0723351 0)
  (0.278016 -0.0889545 0)
  (0.287192 -0.104416 0)
  (0.27969 -0.114284 0)
  (0.257659 -0.117396 0)
  (0.225332 -0.113944 0)
  (0.187401 -0.104752 0)
  (0.147969 -0.0910572 0)
  (0.110325 -0.0746731 0)
  (0.0767901 -0.0573888 0)
  (0.0486091 -0.040442 0)
  (0.0264944 -0.0254477 0)
  (0.0106261 -0.0147283 0)
  (-0.000482501 -0.00935698 0)
  (-0.00873949 -0.00799735 0)
  (-0.0155968 -0.00799093 0)
  (-0.0212638 -0.00802822 0)
  (-0.0255631 -0.00801823 0)
  (-0.0285023 -0.00809552 0)
  (-0.0301237 -0.008386 0)
  (-0.0305876 -0.00909585 0)
  (-0.0302858 -0.0102967 0)
  (-0.0296134 -0.0116349 0)
  (-0.0286674 -0.0126303 0)
  (-0.02726 -0.0127801 0)
  (-0.024942 -0.0114854 0)
  (-0.0206217 -0.00798184 0)
  (-0.0107904 -0.00160611 0)
  (-0.00143542 0.00646819 0)
  (0.0103494 0.0146902 0)
  (0.0227579 0.0216675 0)
  (0.04536 0.0300239 0)
  (0.065546 0.0236123 0)
  (0.0847213 -0.00273364 0)
  (0.145289 0.0510749 0)
  (-0.474192 0.217851 0)
  (1.04592 0.426901 0)
  (0.495451 0.278746 0)
  (0.514551 0.173021 0)
  (0.549664 0.0951908 0)
  (0.529902 0.0415486 0)
  (0.482458 -0.00108048 0)
  (0.427607 -0.0323771 0)
  (0.367602 -0.0515287 0)
  (0.303248 -0.0597818 0)
  (0.237908 -0.0596207 0)
  (0.175655 -0.0537331 0)
  (0.119408 -0.044131 0)
  (0.0713869 -0.0329437 0)
  (0.0321288 -0.0218401 0)
  (0.000925233 -0.0116918 0)
  (-0.0208198 -0.004611 0)
  (-0.0332124 -0.00155692 0)
  (-0.0408141 -0.000933787 0)
  (-0.0460967 -0.00160303 0)
  (-0.0505954 -0.00265689 0)
  (-0.0544749 -0.00371276 0)
  (-0.057749 -0.00475228 0)
  (-0.0604794 -0.00584334 0)
  (-0.0627817 -0.0070245 0)
  (-0.0648851 -0.00832616 0)
  (-0.0671387 -0.00967386 0)
  (-0.0698963 -0.0107994 0)
  (-0.0734479 -0.0113159 0)
  (-0.0780943 -0.0107368 0)
  (-0.0842626 -0.00843529 0)
  (-0.092536 -0.00365443 0)
  (-0.10285 0.00416193 0)
  (-0.113528 0.0146638 0)
  (-0.129239 0.0279555 0)
  (-0.154015 0.0438609 0)
  (-0.189992 0.0608646 0)
  (-0.241696 0.0745445 0)
  (-0.303418 0.0827123 0)
  (-0.380943 0.0861792 0)
  (-0.655149 0.0803085 0)
  (-0.181452 -0.0202738 0)
  (0.100585 -0.0348632 0)
  (0.177431 -0.0545934 0)
  (0.164765 -0.0473139 0)
  (0.145868 -0.0343712 0)
  (0.122083 -0.0226031 0)
  (0.0904663 -0.012551 0)
  (0.054884 -0.00467148 0)
  (0.0201269 0.000777678 0)
  (-0.0126867 0.00439878 0)
  (-0.0366947 0.0057477 0)
  (-0.0541712 0.00589026 0)
  (-0.0654707 0.00499436 0)
  (-0.0714514 0.00296982 0)
  (-0.0748358 0.000485334 0)
  (-0.0771847 -0.00206585 0)
  (-0.0793391 -0.00463987 0)
  (-0.0816012 -0.00703443 0)
  (-0.0841616 -0.0090501 0)
  (-0.0869366 -0.0104764 0)
  (-0.0897703 -0.0114888 0)
  (-0.0927509 -0.0121592 0)
  (-0.0960679 -0.0125276 0)
  (-0.0999085 -0.0125425 0)
  (-0.104382 -0.0120021 0)
  (-0.109458 -0.0105593 0)
  (-0.114922 -0.00775551 0)
  (-0.120354 -0.0030686 0)
  (-0.125131 0.00387299 0)
  (-0.128778 0.0133273 0)
  (-0.131679 0.0262117 0)
  (-0.134113 0.0430294 0)
  (-0.136881 0.0631871 0)
  (-0.140141 0.0835624 0)
  (-0.140056 0.0958649 0)
  (-0.117911 0.0856236 0)
  (-0.0421465 0.0285158 0)
  (-0.209288 -0.186752 0)
  (0.0353385 0.198244 0)
  (0.014305 0.0641109 0)
  (-0.0315933 0.0119536 0)
  (-0.0549082 0.0110793 0)
  (-0.0729394 0.0170503 0)
  (-0.0862803 0.0215176 0)
  (-0.0953468 0.0252321 0)
  (-0.102185 0.0283693 0)
  (-0.10713 0.0303465 0)
  (-0.110427 0.0308914 0)
  (-0.111874 0.0304587 0)
  (-0.111939 0.0302285 0)
  (-0.110863 0.0304228 0)
  (-0.1092 0.0310854 0)
  (-0.107587 0.0324119 0)
  (-0.106291 0.034306 0)
  (-0.105446 0.0363477 0)
  (-0.105083 0.0380307 0)
  (-0.105182 0.0388768 0)
  (-0.105636 0.0384471 0)
  (-0.106479 0.0371783 0)
  (-0.107703 0.0355271 0)
  (-0.109304 0.033602 0)
  (-0.111254 0.0314853 0)
  (-0.113483 0.0292795 0)
  (-0.115848 0.0270922 0)
  (-0.1181 0.0249987 0)
  (-0.119758 0.0232411 0)
  (-0.120022 0.0230571 0)
  (-0.117726 0.0256373 0)
  (-0.111423 0.0319968 0)
  (-0.0999183 0.0430476 0)
  (-0.0833346 0.0586392 0)
  (-0.0631891 0.0748112 0)
  (-0.0424043 0.0820391 0)
  (0.0393812 0.0330225 0)
  (0.150393 -0.0588043 0)
  (-0.0518075 -0.0627566 0)
  (-0.0910303 -0.3465 0)
  (-0.446693 -0.138568 0)
  (-0.333419 0.0442086 0)
  (-0.291328 -0.0447298 0)
  (-0.250483 -0.0513028 0)
  (-0.23915 -0.0439428 0)
  (-0.231183 -0.0369421 0)
  (-0.221985 -0.0325316 0)
  (-0.210496 -0.0303059 0)
  (-0.196962 -0.0303657 0)
  (-0.182328 -0.0332426 0)
  (-0.167974 -0.0389571 0)
  (-0.155117 -0.0467695 0)
  (-0.144389 -0.0554292 0)
  (-0.135892 -0.0643649 0)
  (-0.129478 -0.0733263 0)
  (-0.124783 -0.0819585 0)
  (-0.121362 -0.0898488 0)
  (-0.118877 -0.0965722 0)
  (-0.117119 -0.101689 0)
  (-0.116001 -0.104861 0)
  (-0.115537 -0.105921 0)
  (-0.115704 -0.105163 0)
  (-0.116375 -0.10315 0)
  (-0.117388 -0.100041 0)
  (-0.118574 -0.0959236 0)
  (-0.119713 -0.090796 0)
  (-0.120496 -0.0845478 0)
  (-0.120523 -0.0769316 0)
  (-0.119266 -0.067812 0)
  (-0.115761 -0.0577574 0)
  (-0.108182 -0.0466881 0)
  (-0.0939458 -0.034279 0)
  (-0.0709049 -0.0198299 0)
  (-0.0395204 -0.00284001 0)
  (0.00535808 0.0162313 0)
  (0.0465656 0.00809874 0)
  (0.107579 -0.0464985 0)
  (0.119383 -0.0879298 0)
  (-0.517215 0.0111823 0)
)
;

boundaryField
{
  floor
  {
    type noSlip;
  }
  ceiling
  {
    type noSlip;
  }
  sWall
  {
    type noSlip;
  }
  nWall
  {
    type noSlip;
  }
  sideWalls
  {
    type empty;
  }
  glass1
  {
    type noSlip;
  }
  glass2
  {
    type noSlip;
  }
  sun
  {
    type noSlip;
  }
  heatsource1
  {
    type noSlip;
  }
  heatsource2
  {
    type noSlip;
  }
  Table_master
  {
    type noSlip;
  }
  Table_slave
  {
    type noSlip;
  }
  inlet
  {
    type fixedValue;
    value uniform (0.277164 -0.114805 0);
  }
  outlet
  {
    type zeroGradient;
  }
} 	// ************************************************************************* //

