/*--------------------------------*- C++ -*----------------------------------*\
  =========                 |
  \\      /  F ield         | OpenFOAM: The Open Source CFD Toolbox
   \\    /   O peration     | Website:  https://openfoam.org
    \\  /    A nd           | Version:  6
     \\/     M anipulation  |
\*---------------------------------------------------------------------------*/
FoamFile
{
    version     2.0;
    format      ascii;
    class       volScalarField;
    location    "400";
    object      alphat;
}
// * * * * * * * * * * * * * * * * * * * * * * * * * * * * * * * * * * * * * //

dimensions      [1 -1 -1 0 0 0 0];

internalField   nonuniform List<scalar> 
459
(
0.0013175
0.00145347
0.00149805
0.00157739
0.00165089
0.0017208
0.00179115
0.00185355
0.00189405
0.00190576
0.00188408
0.00182662
0.00173354
0.00161059
0.00147492
0.000565823
0.000675135
0.000755188
0.000727871
0.000659602
0.000582503
0.000510062
0.000455162
0.000412242
0.000377581
0.000347358
0.000319902
0.000295548
0.000276357
0.000264451
0.000257378
0.000285244
0.000537764
0.000427324
0.00175678
0.00439294
0.00431058
0.00506901
0.0058377
0.00659018
0.00721354
0.00771375
0.00815
0.00848467
0.00868123
0.00870069
0.00847907
0.00786492
0.00622121
0.00152254
0.000916949
0.000605851
0.00127283
0.00171511
0.00197376
0.002035
0.00191645
0.00154987
0.00130544
0.00114822
0.0010245
0.000927292
0.000857237
0.000816353
0.000805441
0.000823785
0.000847552
0.000839918
0.00129655
0.000568512
0.00211848
0.00595675
0.00538834
0.00666561
0.00738341
0.00793796
0.00837047
0.00875745
0.00916733
0.00956993
0.0099231
0.0101771
0.0102534
0.0100609
0.00932764
0.00714664
0.00159499
0.00118081
0.00169371
0.00211392
0.00243007
0.00256787
0.00243061
0.000901787
0.000772986
0.000676578
0.000603264
0.000547403
0.000504909
0.000472757
0.000448796
0.000432374
0.000485709
0.000580189
0.00109086
0.000654842
0.00246543
0.00749229
0.00540103
0.00698886
0.00754867
0.00779977
0.00800309
0.00828595
0.00867771
0.00912987
0.00959871
0.0100256
0.0102978
0.0103781
0.0102024
0.00937262
0.00623291
0.00187193
0.00218945
0.00269614
0.00316817
0.00348219
0.00359425
0.00331867
0.00110337
0.00100832
0.000936868
0.000881474
0.000834751
0.000792108
0.000749077
0.000702263
0.000647088
0.000594814
0.000638953
0.00137504
0.000678789
0.00282389
0.00950417
0.00586552
0.0067486
0.00739947
0.0075075
0.00752236
0.00777876
0.00817226
0.00865716
0.00918682
0.0096685
0.0100068
0.0101508
0.010089
0.00975424
0.0088852
0.00741241
0.00679679
0.00648325
0.0062466
0.00601005
0.00577067
0.00550393
0.00480739
0.00452427
0.0043575
0.0042147
0.00401134
0.00367694
0.00321693
0.00265729
0.00205102
0.00148413
0.00107597
0.001127
0.00117249
0.000771995
0.000892263
0.00102398
0.00321059
0.0117598
0.00803815
0.00685561
0.00732364
0.00740852
0.00749875
0.00767317
0.00799629
0.00848825
0.00907027
0.00960572
0.00996412
0.0100788
0.00996322
0.00968609
0.00931557
0.00890453
0.00858506
0.00827812
0.00793979
0.00760397
0.00733133
0.00708966
0.00679431
0.00655803
0.00631945
0.00601064
0.0056223
0.00514905
0.00458233
0.00392329
0.00319114
0.0024461
0.00180936
0.0013349
0.00132931
0.00123156
0.00167628
0.00109806
0.00356011
0.0133255
0.0111951
0.00899541
0.00853294
0.00814134
0.00784759
0.00782837
0.00812994
0.00869462
0.0093686
0.00995562
0.0102982
0.0103351
0.0101137
0.00977971
0.00949823
0.00933409
0.0091968
0.00897329
0.00867219
0.00836179
0.00805228
0.0077441
0.007414
0.00707224
0.00665762
0.00616716
0.00565648
0.00517561
0.00474887
0.00430642
0.00375436
0.00313206
0.00258205
0.00224235
0.00221122
0.00233227
0.00240012
0.00140554
0.00362312
0.0115858
0.0105375
0.00952305
0.00862967
0.00794125
0.00767253
0.00788194
0.00849968
0.00934866
0.0101815
0.0107633
0.0109653
0.0107918
0.0103584
0.00988834
0.00956511
0.00941906
0.00926317
0.00895772
0.00856732
0.00814685
0.00770359
0.00724331
0.00677097
0.00628376
0.00577768
0.00530453
0.00492379
0.00466089
0.00451046
0.00443666
0.00435581
0.00414677
0.00411528
0.00443901
0.00514013
0.00559768
0.00582402
0.00186832
0.00352615
0.00416891
0.0045423
0.00466531
0.00501759
0.00577172
0.00690748
0.00830096
0.00973861
0.0109576
0.0117207
0.0119032
0.0115665
0.0108919
0.0101243
0.00952881
0.0091032
0.00878105
0.00845849
0.00804601
0.00754872
0.00699418
0.00641298
0.00583875
0.00529614
0.00481303
0.00442887
0.00414129
0.0039448
0.00381912
0.00374009
0.00369039
0.00366272
0.00364587
0.0036201
0.00353358
0.00331124
0.00296785
0.00266199
0.00171686
0.00151083
0.00431315
0.00824582
0.0107563
0.0123927
0.0133619
0.0137346
0.0135594
0.0129416
0.0119683
0.0107489
0.00957892
0.0086763
0.00810611
0.0077046
0.00733677
0.00692048
0.00642314
0.00587122
0.00531315
0.00479243
0.00433861
0.00397119
0.00370578
0.00354704
0.00348042
0.00347185
0.00350355
0.00356447
0.00364289
0.00371998
0.00377635
0.00379071
0.00372412
0.00354422
0.00327392
0.00288945
0.00144296
0.00244658
0.00860974
0.0115742
0.0124839
0.0127613
0.0125467
0.0119026
0.0109474
0.00984075
0.00871147
0.00765334
0.00679458
0.00617421
0.00572203
0.00532866
0.00493906
0.00454198
0.00415286
0.00379961
0.00350232
0.00326819
0.00309746
0.0029885
0.00293783
0.0029382
0.00298006
0.00305611
0.00316375
0.00330121
0.00346285
0.00363498
0.00379489
0.00392534
0.00396641
0.00387342
0.00376828
0.00341966
0.00146728
0.00223567
0.00238397
0.00248833
0.00271607
0.00263151
0.00255802
0.00247537
0.00234199
0.00216156
0.00194933
0.00172105
0.00149783
0.00130475
0.00115399
0.00104309
0.000963002
0.000904776
0.000861933
0.000830329
0.00080753
0.000791918
0.00078216
0.000777229
0.000776581
0.0007803
0.000789287
0.000805474
0.000831841
0.000871741
0.000927408
0.0009989
0.00108459
0.00118239
0.00129004
0.0014225
0.00150055
0.00151961
0.00145403
0.00136158
0.00124438
)
;

boundaryField
{
    floor
    {
        type            compressible::alphatWallFunction;
        Prt             0.85;
        value           nonuniform List<scalar> 
29
(
0.000207624
7.92321e-05
9.55351e-05
0.000107263
0.000103267
9.32258e-05
8.1733e-05
7.07659e-05
6.23257e-05
5.56365e-05
5.01675e-05
4.53442e-05
4.09137e-05
3.6941e-05
3.37796e-05
3.1803e-05
3.06212e-05
3.52243e-05
7.49507e-05
5.79555e-05
5.79547e-05
7.9616e-05
9.25139e-05
9.60546e-05
0.000207622
7.92312e-05
8.525e-05
0.000167543
0.000260365
)
;
    }
    ceiling
    {
        type            compressible::alphatWallFunction;
        Prt             0.85;
        value           nonuniform List<scalar> 
43
(
0.000307467
0.000326485
0.000339795
0.000368808
0.000358196
0.000348918
0.000338434
0.000321418
0.000298223
0.000270663
0.000240644
0.000210857
0.000184685
0.00016394
0.000148482
0.000137203
0.000128935
0.000122814
0.000118277
0.000114993
0.000112739
0.000111329
0.000110616
0.000110524
0.000111066
0.000112369
0.000114711
0.000118511
0.000124235
0.000132169
0.00014228
0.000154291
0.000167866
0.000182663
0.000200685
0.000211206
0.000213766
0.000204935
0.000192415
0.000176403
0.00046977
0.000547954
0.000334175
)
;
    }
    sWall
    {
        type            compressible::alphatWallFunction;
        Prt             0.85;
        value           uniform 0.000306215;
    }
    nWall
    {
        type            compressible::alphatWallFunction;
        Prt             0.85;
        value           nonuniform List<scalar> 6(0.00014545 0.000155807 0.000198024 0.000203109 0.000206389 0.00017607);
    }
    sideWalls
    {
        type            empty;
    }
    glass1
    {
        type            compressible::alphatWallFunction;
        Prt             0.85;
        value           nonuniform List<scalar> 9(0.00018171 0.000239866 0.00028667 0.000330844 0.000375858 0.000423795 0.000466662 0.00047448 0.000462894);
    }
    glass2
    {
        type            compressible::alphatWallFunction;
        Prt             0.85;
        value           nonuniform List<scalar> 2(0.000258085 0.000238294);
    }
    sun
    {
        type            compressible::alphatWallFunction;
        Prt             0.85;
        value           nonuniform List<scalar> 
14
(
0.000186257
0.000204685
0.000210689
0.000221326
0.000231128
0.000240405
0.000249699
0.000257911
0.000263226
0.000264762
0.000261925
0.000254385
0.000242112
0.000225793
)
;
    }
    heatsource1
    {
        type            compressible::alphatWallFunction;
        Prt             0.85;
        value           nonuniform List<scalar> 3(0.000109834 0.000127151 0.0001458);
    }
    heatsource2
    {
        type            compressible::alphatWallFunction;
        Prt             0.85;
        value           nonuniform List<scalar> 4(0.000214173 0.000130625 0.000130623 0.000223846);
    }
    Table_master
    {
        type            compressible::alphatWallFunction;
        Prt             0.85;
        value           nonuniform List<scalar> 9(0.000128484 0.000109962 9.58576e-05 8.49681e-05 7.65617e-05 7.00956e-05 6.51579e-05 6.14505e-05 5.88951e-05);
    }
    Table_slave
    {
        type            compressible::alphatWallFunction;
        Prt             0.85;
        value           nonuniform List<scalar> 9(0.000156871 0.000143571 0.000133477 0.000125588 0.000118889 0.000112736 0.000106485 9.96357e-05 9.14904e-05);
    }
    inlet
    {
        type            fixedValue;
        value           uniform 1.94e-05;
    }
    outlet
    {
        type            zeroGradient;
    }
}


// ************************************************************************* //
