/*--------------------------------*- C++ -*----------------------------------*\
  =========                 |
  \\      /  F ield         | OpenFOAM: The Open Source CFD Toolbox
   \\    /   O peration     | Website:  https://openfoam.org
    \\  /    A nd           | Version:  6
     \\/     M anipulation  |
\*---------------------------------------------------------------------------*/
FoamFile
{
    version     2.0;
    format      ascii;
    class       volScalarField;
    location    "2500";
    object      nut;
}
// * * * * * * * * * * * * * * * * * * * * * * * * * * * * * * * * * * * * * //

dimensions      [0 2 -1 0 0 0 0];

internalField   nonuniform List<scalar> 
459
(
0.00113852
0.00124686
0.00127109
0.00133393
0.00139286
0.00144876
0.00150454
0.00155563
0.00158987
0.00160143
0.00158526
0.00153822
0.00145931
0.00135297
0.00123242
0.000515068
0.000622283
0.000700162
0.000698986
0.000676269
0.000645428
0.00060568
0.000566027
0.000529999
0.000498003
0.000469667
0.000444489
0.000422101
0.000401992
0.000383461
0.000365615
0.00034721
0.000335743
0.000307674
0.00154915
0.00387794
0.00374734
0.00437378
0.00499251
0.00560213
0.00611894
0.00652671
0.00688711
0.0071716
0.0073438
0.0073663
0.00718238
0.00664531
0.00515755
0.00126636
0.00073928
0.00054709
0.00115244
0.00160871
0.00194317
0.0021227
0.00211411
0.00168346
0.00144792
0.00128089
0.00115337
0.00105242
0.000970528
0.00089993
0.000834169
0.000770163
0.000713173
0.000662613
0.000789021
0.000407701
0.00188822
0.00530246
0.00467728
0.00584752
0.00644424
0.0068914
0.00723973
0.00753662
0.00785019
0.00816606
0.00844401
0.00863823
0.0086956
0.00852325
0.00786147
0.00594913
0.00129915
0.00105844
0.00155099
0.00201231
0.00243426
0.00272259
0.00264621
0.000859254
0.000758198
0.000676935
0.000611387
0.000558031
0.000514135
0.000477746
0.000447624
0.000423299
0.000457666
0.0005302
0.000895143
0.000476002
0.00221122
0.00674467
0.00473062
0.00619208
0.00670511
0.00690154
0.00705005
0.00723697
0.00750971
0.00785158
0.0082093
0.00852716
0.00874416
0.00878185
0.00858124
0.00783564
0.00533258
0.00153194
0.00191317
0.00249225
0.00306475
0.00352132
0.00379419
0.00353978
0.00096655
0.00088003
0.000818316
0.00077101
0.00073028
0.000692975
0.000656994
0.000619192
0.000575367
0.000539321
0.000556259
0.00104985
0.000526654
0.00253889
0.00857502
0.00523888
0.00601974
0.00665943
0.00672834
0.00671766
0.00685964
0.0071092
0.00747184
0.00787713
0.00824972
0.00849949
0.00857222
0.00846189
0.00813268
0.00738617
0.00613496
0.00570873
0.00557798
0.00553528
0.00549677
0.00541595
0.00517504
0.00433413
0.00393422
0.00370159
0.00352083
0.00333075
0.00305585
0.0026932
0.00226188
0.00179044
0.00132391
0.000978178
0.00102916
0.000690779
0.000641285
0.000766312
0.000858389
0.00288481
0.0105597
0.00717329
0.00614978
0.00661375
0.00672723
0.00668838
0.0067788
0.00697415
0.00730753
0.00773891
0.00815413
0.00842444
0.00847161
0.00830737
0.00801934
0.0077014
0.00740123
0.00722972
0.00707314
0.00687201
0.00663592
0.00637648
0.00607481
0.00567227
0.00532969
0.00503774
0.00476574
0.0044931
0.00419348
0.00381118
0.00333236
0.00276092
0.00213733
0.00159492
0.00118535
0.000926959
0.000816921
0.00118242
0.000900606
0.00319196
0.011908
0.00987692
0.00791904
0.00758379
0.007311
0.00702246
0.00690758
0.00703201
0.00738689
0.0078771
0.0083402
0.00861225
0.00860371
0.00835001
0.00801489
0.00780533
0.00777971
0.00777459
0.00762503
0.00732541
0.00694086
0.0065185
0.00608301
0.00565637
0.00528574
0.00496334
0.00467242
0.00440768
0.00417298
0.00396494
0.0036364
0.0031736
0.00261973
0.00210191
0.00163794
0.00133352
0.00127334
0.00133655
0.00103905
0.00324483
0.0103917
0.00938629
0.00867932
0.00799897
0.0073202
0.00690255
0.00685328
0.00715887
0.00771633
0.00834906
0.00884616
0.00904115
0.00888352
0.00847777
0.00807954
0.00793126
0.00796327
0.00783398
0.0074649
0.00694279
0.00635535
0.005772
0.00524892
0.00481839
0.00447821
0.00420304
0.00397742
0.00379997
0.00367761
0.00361768
0.00358047
0.0033052
0.00293596
0.00262383
0.00249079
0.00266345
0.00323986
0.00407326
0.00159997
0.00315303
0.00371731
0.00409414
0.00418646
0.00440158
0.00487942
0.00563489
0.00661453
0.00768905
0.00868077
0.00940129
0.00969443
0.00951973
0.00899625
0.00840913
0.00805842
0.00782752
0.0075441
0.00707333
0.00643431
0.005725
0.00504661
0.00447251
0.00402877
0.00369837
0.00344588
0.00324099
0.00306621
0.00291179
0.00277067
0.00263736
0.00251619
0.00242153
0.00235953
0.0023496
0.0023786
0.00237445
0.00227332
0.00211194
0.00147235
0.00144574
0.00368125
0.00668463
0.00865475
0.00996315
0.0107709
0.0111173
0.0110715
0.0107127
0.0101294
0.0092851
0.00842437
0.00776858
0.00730013
0.00681209
0.00620842
0.00551933
0.00481919
0.0041782
0.00366059
0.00328011
0.00300929
0.00281247
0.00266234
0.002543
0.0024472
0.00237317
0.00232275
0.00230125
0.00230654
0.00232669
0.00235817
0.00238968
0.00238984
0.0023114
0.00213818
0.00188126
0.00118688
0.00219151
0.00678914
0.00937585
0.0100655
0.010286
0.0101507
0.00968815
0.00902033
0.00826307
0.00752311
0.00682091
0.00622711
0.00572762
0.00522078
0.00466996
0.00411818
0.00361262
0.00318356
0.00284236
0.00258081
0.00239357
0.00226329
0.00217612
0.00212367
0.0021008
0.00210312
0.00212498
0.00216159
0.00222112
0.00229861
0.00239012
0.00248788
0.00257506
0.00263718
0.00262526
0.00262684
0.00237276
0.00120154
0.00196288
0.00208198
0.0021679
0.0023383
0.0022468
0.00216128
0.00209118
0.0019894
0.00185171
0.00168629
0.00150187
0.00131457
0.0011468
0.00101203
0.000910542
0.000835638
0.000780249
0.000739484
0.000710737
0.00069269
0.000684322
0.000684163
0.000689904
0.000700687
0.000715997
0.000735611
0.000759547
0.000788095
0.000821958
0.000862075
0.000907825
0.000959691
0.00101807
0.00108346
0.00115582
0.00125206
0.00127911
0.00124732
0.00116364
0.0010735
)
;

boundaryField
{
    floor
    {
        type            nutkWallFunction;
        Cmu             0.09;
        kappa           0.41;
        E               9.8;
        value           nonuniform List<scalar> 
29
(
0.000147724
6.16399e-05
7.51286e-05
8.47475e-05
8.46032e-05
8.18109e-05
7.80016e-05
7.30596e-05
6.809e-05
6.35376e-05
5.94627e-05
5.58266e-05
5.25726e-05
4.96599e-05
4.70268e-05
4.45854e-05
4.222e-05
3.97649e-05
3.82266e-05
3.44317e-05
3.44316e-05
4.77754e-05
5.66411e-05
6.31122e-05
0.000147724
6.16399e-05
6.57015e-05
0.00012757
0.000181704
)
;
    }
    ceiling
    {
        type            nutkWallFunction;
        Cmu             0.09;
        kappa           0.41;
        E               9.8;
        value           nonuniform List<scalar> 
43
(
0.00022916
0.000242099
0.000251386
0.000269833
0.000260067
0.00025087
0.000243296
0.000232241
0.000217182
0.000198923
0.000178332
0.000157132
0.000137852
0.000122134
0.000110139
0.000101186
9.45065e-05
8.95545e-05
8.6043e-05
8.383e-05
8.28015e-05
8.27819e-05
8.34877e-05
8.48114e-05
8.66868e-05
8.90824e-05
9.19956e-05
9.54561e-05
9.95417e-05
0.000104356
0.000109816
0.000115966
0.000122844
0.000130494
0.000138898
0.000149985
0.000153084
0.000149442
0.000139803
0.000129332
0.000356014
0.000414143
0.000253724
)
;
    }
    sWall
    {
        type            nutkWallFunction;
        Cmu             0.09;
        kappa           0.41;
        E               9.8;
        value           uniform 0.000229225;
    }
    nWall
    {
        type            nutkWallFunction;
        Cmu             0.09;
        kappa           0.41;
        E               9.8;
        value           nonuniform List<scalar> 6(0.000103917 0.000108959 0.000125308 0.000142499 0.000144189 0.000129341);
    }
    sideWalls
    {
        type            empty;
    }
    glass1
    {
        type            nutkWallFunction;
        Cmu             0.09;
        kappa           0.41;
        E               9.8;
        value           nonuniform List<scalar> 9(0.000137021 0.000183889 0.000221532 0.000256708 0.000291836 0.000328406 0.000360496 0.000365999 0.000356478);
    }
    glass2
    {
        type            nutkWallFunction;
        Cmu             0.09;
        kappa           0.41;
        E               9.8;
        value           nonuniform List<scalar> 2(0.000189417 0.000175099);
    }
    sun
    {
        type            nutkWallFunction;
        Cmu             0.09;
        kappa           0.41;
        E               9.8;
        value           nonuniform List<scalar> 
14
(
0.000136894
0.000149382
0.000152159
0.000159333
0.000166027
0.000172348
0.000178628
0.000184358
0.000188186
0.000189476
0.00018767
0.000182407
0.000173536
0.000161498
)
;
    }
    heatsource1
    {
        type            nutkWallFunction;
        Cmu             0.09;
        kappa           0.41;
        E               9.8;
        value           nonuniform List<scalar> 3(7.74898e-05 9.28172e-05 0.000103914);
    }
    heatsource2
    {
        type            nutkWallFunction;
        Cmu             0.09;
        kappa           0.41;
        E               9.8;
        value           nonuniform List<scalar> 4(0.00015161 8.95308e-05 8.95308e-05 0.00015536);
    }
    Table_master
    {
        type            nutkWallFunction;
        Cmu             0.09;
        kappa           0.41;
        E               9.8;
        value           nonuniform List<scalar> 9(0.000104017 9.18321e-05 8.18947e-05 7.3775e-05 6.70877e-05 6.15275e-05 5.68738e-05 5.29882e-05 4.98263e-05);
    }
    Table_slave
    {
        type            nutkWallFunction;
        Cmu             0.09;
        kappa           0.41;
        E               9.8;
        value           nonuniform List<scalar> 9(0.000116773 0.000106501 9.91025e-05 9.3387e-05 8.8433e-05 8.38666e-05 7.94344e-05 7.47463e-05 6.92677e-05);
    }
    inlet
    {
        type            calculated;
        value           uniform 0.000100623;
    }
    outlet
    {
        type            calculated;
        value           nonuniform List<scalar> 2(0.00196288 0.00208198);
    }
}


// ************************************************************************* //
