/*--------------------------------*- C++ -*----------------------------------*=========                 |
  \      /  F ield         | OpenFOAM: The Open Source CFD Toolbox
   \    /   O peration     | Website:  https://openfoam.org
    \  /    A nd           | Version:  6
     \/     M anipulation  |
\*---------------------------------------------------------------------------*/
FoamFile
{
    version     2.0;
    format      ascii;
    class       volScalarField;
    location    "2500";
    object      PPD;
}
// * * * * * * * * * * * * * * * * * * * * * * * * * * * * * * * * * * * * * //

dimensions      [0 0 0 0 0 0 0];

internalField   nonuniform List<scalar> 
459
(
59.234438690723074
47.4928524211774
46.091806207533786
44.86793378496901
44.04699315598236
43.57590000149789
43.431240223269796
43.63287655749306
44.144582096199066
45.05613660198513
46.423192900472024
48.33720910193287
50.890829543749454
52.893020289463685
53.12717908718334
56.61250502624131
55.910963604193995
55.676976500769335
55.78097825780968
55.910963604193995
56.040928970891336
55.961378758637125
55.720054305593585
55.68668325437397
55.73418040648798
55.812537960763535
55.914760547162224
56.021478230828826
56.20305395900542
56.48884683282142
56.9998193315507
57.4947699035121
57.676217201603
58.323602714931056
57.17186853595882
48.62194138918003
48.188551302687834
47.06597473074132
46.3821006263429
46.01165776556977
45.88532259423624
46.01779335017747
46.25960648115765
46.704883978920904
47.51957066940616
48.81633513887557
50.67130240943582
52.450822913991374
52.476830112985034
52.476830112985034
52.398810368799786
54.64845627623483
55.41692445988028
55.23485200957983
55.31627295800297
54.993346145336155
54.750231211608444
54.66751365986796
54.69670485510054
54.75783890843401
54.8008539465489
54.80943086010644
54.84790480729422
54.89472545835491
54.953102907009026
55.09040662619942
55.50874217279063
56.48264360476909
56.79426489242197
56.35305498440014
59.46925887103703
48.77568154154959
50.130844356038295
49.587101490979684
49.44839919460386
49.42741648231358
49.504780933444174
49.54868099886827
49.34292460250958
48.96442146539229
48.78587655369841
49.085698664705916
50.07050995407377
51.75554819324992
52.3468003635532
52.476830112985034
52.52884631157967
49.72091895746
51.962031867168136
52.66097726992031
53.15245130515381
53.67358917208834
54.045891000059626
54.2013507066806
54.63840925171966
54.94381299126923
55.08234092548081
55.140990832572186
55.169060709992074
55.16634153170876
55.11420247564521
54.876215367433055
54.950730840984875
55.93061773513526
55.50625815579061
53.019638604599656
63.53517564559943
49.099961597481155
51.64200900574321
52.189322163965365
53.135955096024986
54.003339606514984
54.67662023649016
54.4319027620342
53.027344602201914
51.04957293322134
49.40417691870551
48.56680484340677
48.71420233761611
49.86238059437974
51.57107552476437
52.52884631157967
51.73618936948642
49.5121639828826
49.47153220501766
50.9549936716456
52.39812424628102
53.55456221245772
54.57071828265842
55.31139545587953
55.57352314388056
55.4862453370415
55.45154792002185
55.48158339529299
55.552274059390435
55.73087970438122
56.09395973183883
56.72519950005425
57.937063507347176
57.578422674688746
56.7485088553205
54.43237592710106
50.62023434440682
68.1860748503379
50.189303386996016
53.11359047351719
54.68920448807366
57.28219581523455
60.219758109458716
61.56572820396713
59.10111231920643
55.240480783116645
51.48809385292761
48.7934257552577
47.34565740541102
47.15812577233979
48.09254496633297
49.6598725222642
51.12109906817671
51.47883786278972
51.327353272213315
51.793697524966056
53.11014166411982
54.726877607664086
56.19249335072345
57.413323144643755
58.313021906869366
58.78903029076392
58.97040957166365
58.99487841191237
58.97175727103253
58.88863559021631
58.7983185652443
58.75821314891335
58.80587297168494
58.90067746271786
58.14762698327576
56.703499962474886
53.48288812937283
53.1308506852886
60.15544458871624
59.46484243637475
50.63606201628701
72.67246001388912
52.519957337562325
55.973487129468836
57.59820307149137
61.30997601689399
62.8394977976825
62.305849136776416
58.03359915842186
53.81585414012117
49.94896874580312
47.09629827548299
45.64583716717148
45.67965274231028
46.90092796765222
48.94931439197509
51.13491264826855
52.844515361091375
54.00460376637168
55.306365339627945
56.962381531394584
57.93529613701705
58.711502414551745
59.35699776572228
59.87239208797705
60.28400236187413
60.59226936843913
60.84885478445322
61.00266859992941
61.05391644278097
61.00266859992941
60.82320901281812
60.54091871185579
60.1172918268823
58.72030020757906
56.8568792325037
53.469272638439264
53.32201057460987
54.177022312632374
54.1338881495726
54.81094757040537
76.85012862256947
57.72438845229508
64.13594727305878
62.75526636983434
62.55175900123349
61.19023922820149
58.346526729344085
54.42384160598663
50.14742793009659
46.4828750840454
44.137006621752896
43.48571765327153
44.435540590121164
46.66947215737137
49.76051461563939
53.13829491518096
55.390915807835874
56.66444203386708
57.83168369207425
58.8407055365292
59.692111676138204
60.41249419094099
60.95140898446046
61.33556524767337
61.64239229224226
61.872209754024006
62.02527279117851
62.07626689257739
62.0507715364845
61.897728606544774
61.61684079699714
61.23318992484166
60.77190887990235
60.148109288074025
57.96469170822586
54.813274720305024
53.601666064469136
53.011484606185654
51.61219762615131
56.21751088688176
82.43655923330653
74.17831435717656
72.07038188255137
67.04656562820298
63.98012038895403
59.65025570950638
54.05390940990143
48.31683893685629
43.619678445934596
40.818711407382715
40.11289147782561
41.40180532486929
44.351049968631024
48.43598976417712
53.323574700286386
55.65097427906441
57.416984659376425
58.8407055365292
59.92387877280526
60.77190887990235
61.43789121426848
61.948756328579385
62.33103165931148
62.585445572227485
62.76332075119872
62.86488271079402
62.91564131859432
62.89026388803481
62.7887168070736
62.61086724932858
62.33103165931148
61.92324413501967
61.48903547125405
60.977040258321715
60.38680116613361
59.795143614669435
58.71679733475855
58.0968726326548
54.77840301598858
50.17435173584787
89.2036871376242
84.91256047962831
78.27398700497403
69.76318704940218
59.0015543811576
47.3909815724378
38.49803457799276
33.37087952410337
31.738659669936766
33.02040345397218
36.607554885637406
42.01908889614231
48.49458664882709
53.075141137289684
56.09290922123526
58.47881348057705
60.001090135642904
61.05391644278097
61.821162120296876
62.40739316606474
62.86488271079402
62.98374657894457
62.915330645811885
62.840112813671816
62.686411358385065
62.501626196607106
62.239120847558006
61.88506083256546
61.475044926861756
60.95561527515462
60.33116781166164
59.66774371866158
59.031902091272144
58.2567708866719
57.40681944324343
56.629196361257044
56.13551269633308
55.854659804976244
55.252299452249716
53.62666027344245
98.98090478986569
68.2233620446086
31.981684716689315
8.151684315445323
5.592339237624003
12.591045606013651
24.1510830235233
36.002426316372556
44.34187062742792
51.07357791495674
55.13079894472978
57.90939546592165
59.11886554807271
59.998719496881534
60.65053550201282
61.12799914311114
61.41553403249195
61.5848423202887
61.6322487276246
61.59997732758081
61.49060954692718
61.32209877983516
61.11081660216083
60.849248927432825
60.56250968263708
60.257432773412866
59.94840777950941
59.681148986851014
59.45076993769359
59.306529835989785
59.21452273743883
59.130571473547406
59.11104293788719
59.19452875298738
59.763607535237945
61.66889055173183
65.47790977741805
57.107523231448766
92.60682399703984
25.963739180080424
5.040044933342841
11.90602879914104
22.07979759481026
30.581112497035335
37.99664539292528
44.142134046189646
49.05313392231862
52.7878640704732
55.34908079395784
57.10503960073489
58.35228984074108
59.24487932469303
59.82848857708829
60.25021189655815
60.48472363316387
60.646079263281464
60.72486568625729
60.77123992142245
60.7752251512841
60.73432237706148
60.64815559538567
60.5709643447753
60.45453403748909
60.36006641302008
60.275364800012916
60.225279916058135
60.268295888437585
60.42693434098775
60.8272800382514
61.43822650491641
62.07795004603629
62.61875817883962
63.22465003930095
65.25072123326927
61.816747877591546
59.16530793364002
20.601004140154885
26.061431719785475
21.27828461260735
7.84121471379612
21.492795335231335
30.516581267695614
36.88237065087001
42.148553880899605
46.53854529028504
50.17234684673195
53.15571883292927
55.43746941994756
57.09412117185032
58.20902844474451
58.9173464521084
59.342098053145534
59.5709233568653
59.61708470981762
59.625491756609556
59.59764336882673
59.57669062110848
59.56291253625205
59.56795688420865
59.56251098381841
59.5999127789405
59.62713456337059
59.6778998426077
59.79185512009515
59.93559935606625
60.16348366118999
60.53901865817892
61.18287754965402
62.325370858143934
64.3530966176482
65.78138548917562
66.10436938374175
64.35728729421017
62.1332175519768
59.91372777876902
60.207833225754584
)
;

boundaryField
{
    ".*"
    {
        type            zeroGradient;
    }
}


// ************************************************************************* //
