/*--------------------------------*- C++ -*----------------------------------*\
  =========                 |
  \\      /  F ield         | OpenFOAM: The Open Source CFD Toolbox
   \\    /   O peration     | Website:  https://openfoam.org
    \\  /    A nd           | Version:  6
     \\/     M anipulation  |
\*---------------------------------------------------------------------------*/
FoamFile
{
    version     2.0;
    format      ascii;
    class       volScalarField;
    location    "400";
    object      alphat;
}
// * * * * * * * * * * * * * * * * * * * * * * * * * * * * * * * * * * * * * //

dimensions      [1 -1 -1 0 0 0 0];

internalField   nonuniform List<scalar> 
459
(
0.000857111
0.000889785
0.000866516
0.000896331
0.000923094
0.000946356
0.000966856
0.000985469
0.00100315
0.0010211
0.00103558
0.00104546
0.00105053
0.00105226
0.00105053
0.000800552
0.000762879
0.000718029
0.000689009
0.00066668
0.000639603
0.00060098
0.000563367
0.000526585
0.000490859
0.000456437
0.000423461
0.000391963
0.000361778
0.000332336
0.000302223
0.000275523
0.000371649
0.000378953
0.00134742
0.00210816
0.00171604
0.00204448
0.00218736
0.00233931
0.00249188
0.00263255
0.00274345
0.00280064
0.00281782
0.00276209
0.00259059
0.00224447
0.00168109
0.00109436
0.000995426
0.000975277
0.00193204
0.00248623
0.0028341
0.00291897
0.00271234
0.00210603
0.00173254
0.00145625
0.00124131
0.00106884
0.000928523
0.000813314
0.000718311
0.000642904
0.000585066
0.000496653
0.000779211
0.000544432
0.00179967
0.00330096
0.00182958
0.00289591
0.00313381
0.00329151
0.00341762
0.00351654
0.00359043
0.00363444
0.00364792
0.00359798
0.00344082
0.00312164
0.00260522
0.00195376
0.00123497
0.00114662
0.00343226
0.0041368
0.00423496
0.00405896
0.00331795
0.000806581
0.00067851
0.000590475
0.000527245
0.000479799
0.000442919
0.000413624
0.000390315
0.000372497
0.000407815
0.000421508
0.000865037
0.000648385
0.00226042
0.00508319
0.00184497
0.00323974
0.00368828
0.00383367
0.00392004
0.00397821
0.00402212
0.00405515
0.00408186
0.00408596
0.00403489
0.00387301
0.00351332
0.00287129
0.0020064
0.00133187
0.00391761
0.00434695
0.00455406
0.00455922
0.00436605
0.00359646
0.000870075
0.000820758
0.00080855
0.000808167
0.000807524
0.000797915
0.000772448
0.000741155
0.00070282
0.000646429
0.000598818
0.00131991
0.000705702
0.00272077
0.00735562
0.00238631
0.00305122
0.00392964
0.00410854
0.00416899
0.00419217
0.00420506
0.00422455
0.00425874
0.00431754
0.0043789
0.00441151
0.00437465
0.00424287
0.00404652
0.00386204
0.00393495
0.00412344
0.00437813
0.00444867
0.00442082
0.00425391
0.00376444
0.00372371
0.00375573
0.00377287
0.00373761
0.00362987
0.00343444
0.0030261
0.00248185
0.00190273
0.00134314
0.00118788
0.00112698
0.00086809
0.00101055
0.00114407
0.00318159
0.00970547
0.00414344
0.00270363
0.00368048
0.00409711
0.00424444
0.00428802
0.00426981
0.0042385
0.00425191
0.00433648
0.00444277
0.00453875
0.00456899
0.00445881
0.00414588
0.00369765
0.0034177
0.00367434
0.00417103
0.00431165
0.00436181
0.00440779
0.00444443
0.00452924
0.00459646
0.00460477
0.00454081
0.00441022
0.00423007
0.00396511
0.00352498
0.00292608
0.00224152
0.00143736
0.00135576
0.00125203
0.00176381
0.00122216
0.00363586
0.0115964
0.00756316
0.00398571
0.00297737
0.00320362
0.00370314
0.00409828
0.0043156
0.00420331
0.00420001
0.00428924
0.00439797
0.00451546
0.00459423
0.0045488
0.00424832
0.0036317
0.00305396
0.0033046
0.00409895
0.00428163
0.00435646
0.00445368
0.00457076
0.00467818
0.00473406
0.00470981
0.00461311
0.00447581
0.0043389
0.00422145
0.00397999
0.00351497
0.00293964
0.00230279
0.00206593
0.00210716
0.00219753
0.00149177
0.00374582
0.0115688
0.00943144
0.00746817
0.00545744
0.00415772
0.00371282
0.00381662
0.004131
0.00419453
0.00419701
0.00423344
0.00430479
0.00439525
0.0044778
0.0045045
0.00435454
0.00374782
0.00284923
0.00298621
0.00413128
0.00434686
0.00443919
0.00455323
0.00465542
0.00471334
0.00470196
0.00461288
0.00447169
0.00433602
0.00426651
0.00429778
0.00438023
0.00418686
0.00392882
0.00395249
0.00451487
0.00529295
0.00614487
0.0020804
0.00366279
0.00443209
0.00503231
0.00527006
0.00515444
0.00475662
0.00435901
0.00410561
0.00400711
0.0039724
0.00400297
0.00407371
0.00415987
0.0042411
0.00430547
0.00434537
0.00429654
0.00384145
0.00273214
0.0026877
0.00421928
0.00447096
0.00459835
0.00473264
0.00479495
0.00478344
0.00469476
0.00451726
0.00426936
0.00401
0.0038028
0.00367369
0.00361189
0.00358514
0.00359206
0.00360794
0.00351674
0.00325413
0.00294485
0.00194965
0.00288357
0.00494169
0.00515369
0.00502325
0.00479847
0.00459165
0.00444345
0.00434242
0.00427616
0.00423325
0.00419582
0.00415371
0.00411236
0.00409667
0.00408728
0.00369768
0.00250117
0.00239482
0.00436812
0.00458192
0.00481038
0.00503132
0.00507927
0.00504169
0.00496058
0.00480651
0.00456635
0.00428275
0.00403675
0.00389945
0.00385312
0.00386604
0.00390586
0.00393984
0.00394208
0.00395834
0.00344854
0.00170918
0.00300895
0.00567363
0.00577088
0.00549881
0.00523438
0.00497978
0.00473527
0.00450788
0.00428399
0.00401255
0.00373306
0.00347556
0.00326901
0.00314794
0.00311502
0.00292361
0.00205491
0.00202945
0.00411211
0.00421181
0.00456774
0.00483553
0.00487389
0.00483871
0.00480227
0.00474297
0.0046376
0.00448811
0.00430456
0.00420492
0.00419131
0.00424071
0.00431322
0.00440056
0.00453049
0.00441068
0.00290083
0.0017345
0.00258539
0.00272587
0.00284672
0.00299053
0.00278633
0.00256736
0.00237192
0.00220284
0.00204723
0.0019046
0.00177526
0.00166601
0.0015684
0.0014787
0.00139587
0.00132093
0.00125602
0.00119921
0.00113694
0.0011564
0.00126267
0.00123713
0.00125521
0.00126681
0.00126835
0.00126734
0.00126838
0.0012734
0.00128541
0.00130962
0.00135358
0.00141148
0.00148624
0.00157519
0.00167482
0.00179347
0.00180874
0.00167053
0.00151801
0.0015995
)
;

boundaryField
{
    floor
    {
        type            compressible::alphatWallFunction;
        Prt             0.85;
        value           nonuniform List<scalar> 
29
(
0.000149301
0.000113762
0.000108298
0.000101752
9.74896e-05
9.41951e-05
9.01827e-05
8.44246e-05
7.87729e-05
7.32002e-05
6.77407e-05
6.24329e-05
5.73006e-05
5.23506e-05
4.7559e-05
4.2835e-05
3.79457e-05
3.35592e-05
4.9169e-05
5.03188e-05
5.03181e-05
7.59204e-05
9.14917e-05
9.99448e-05
0.0001493
0.000113761
0.000138714
0.000162681
0.000188138
)
;
    }
    ceiling
    {
        type            compressible::alphatWallFunction;
        Prt             0.85;
        value           nonuniform List<scalar> 
43
(
0.000352109
0.000369861
0.000385057
0.000403172
0.000377632
0.000350003
0.000325121
0.000303414
0.000283275
0.000264669
0.000247665
0.000233197
0.000220181
0.00020814
0.00019695
0.000186761
0.000177883
0.000170069
0.000161456
0.000164172
0.00017882
0.000175299
0.000177777
0.000179371
0.000179586
0.000179447
0.000179589
0.000180276
0.000181921
0.00018523
0.00019122
0.000199077
0.00020917
0.000221104
0.000234384
0.000250086
0.000252099
0.000233816
0.000213447
0.000224365
0.000486439
0.000579535
0.000405243
)
;
    }
    sWall
    {
        type            compressible::alphatWallFunction;
        Prt             0.85;
        value           uniform 0.000350821;
    }
    nWall
    {
        type            compressible::alphatWallFunction;
        Prt             0.85;
        value           nonuniform List<scalar> 6(0.000162056 0.000172834 0.000209496 0.000238551 0.000241905 0.000223974);
    }
    sideWalls
    {
        type            empty;
    }
    glass1
    {
        type            compressible::alphatWallFunction;
        Prt             0.85;
        value           nonuniform List<scalar> 9(0.000118185 0.000185315 0.000244997 0.000304281 0.000362347 0.000419526 0.000475107 0.000488607 0.000478779);
    }
    glass2
    {
        type            compressible::alphatWallFunction;
        Prt             0.85;
        value           nonuniform List<scalar> 2(0.000284806 0.000267995);
    }
    sun
    {
        type            compressible::alphatWallFunction;
        Prt             0.85;
        value           nonuniform List<scalar> 
14
(
0.000121931
0.000126585
0.000123257
0.000127518
0.000131328
0.00013463
0.000137531
0.00014016
0.000142651
0.000145175
0.000147207
0.000148591
0.000149302
0.000149543
)
;
    }
    heatsource1
    {
        type            compressible::alphatWallFunction;
        Prt             0.85;
        value           nonuniform List<scalar> 3(0.000123693 0.000143907 0.000162553);
    }
    heatsource2
    {
        type            compressible::alphatWallFunction;
        Prt             0.85;
        value           nonuniform List<scalar> 4(0.000155641 0.000141776 0.000141774 0.0001751);
    }
    Table_master
    {
        type            compressible::alphatWallFunction;
        Prt             0.85;
        value           nonuniform List<scalar> 9(0.000114835 9.61458e-05 8.30524e-05 7.35002e-05 6.62387e-05 6.05315e-05 5.59552e-05 5.22841e-05 4.94591e-05);
    }
    Table_slave
    {
        type            compressible::alphatWallFunction;
        Prt             0.85;
        value           nonuniform List<scalar> 9(0.000123975 0.000116891 0.000115129 0.000115074 0.000114982 0.000113594 0.000109904 0.000105348 9.97361e-05);
    }
    inlet
    {
        type            fixedValue;
        value           uniform 1.94e-05;
    }
    outlet
    {
        type            zeroGradient;
    }
}


// ************************************************************************* //
