/*--------------------------------*- C++ -*----------------------------------*\
  =========                 |
  \\      /  F ield         | OpenFOAM: The Open Source CFD Toolbox
   \\    /   O peration     | Website:  https://openfoam.org
    \\  /    A nd           | Version:  6
     \\/     M anipulation  |
\*---------------------------------------------------------------------------*/
FoamFile
{
    version     2.0;
    format      ascii;
    class       volScalarField;
    location    "3000";
    object      alphat;
}
// * * * * * * * * * * * * * * * * * * * * * * * * * * * * * * * * * * * * * //

dimensions      [1 -1 -1 0 0 0 0];

internalField   nonuniform List<scalar> 
459
(
0.00132216
0.00144909
0.00147704
0.00154998
0.00161834
0.00168312
0.00174765
0.00180718
0.00184735
0.00186143
0.00184346
0.00178982
0.00169944
0.00157781
0.00144078
0.000598694
0.000724043
0.000813926
0.000811401
0.000784462
0.000748284
0.000702114
0.000656183
0.000614469
0.000577424
0.000544615
0.000515464
0.000489569
0.000466311
0.000444881
0.000424244
0.000402955
0.000389884
0.000357531
0.00179891
0.00450475
0.00435245
0.0050803
0.00579832
0.0065068
0.00711024
0.00758443
0.00800451
0.0083374
0.0085399
0.00856726
0.00835102
0.00771487
0.00595127
0.00148048
0.000851093
0.000637554
0.00133836
0.00186505
0.00225008
0.00245549
0.00244479
0.00195101
0.00167904
0.00148555
0.00133741
0.0012198
0.00112409
0.00104111
0.000964002
0.000889397
0.000823276
0.000764874
0.000914539
0.000474381
0.00219194
0.00615845
0.00543058
0.00679756
0.00749407
0.00801584
0.00842253
0.00876672
0.00913084
0.00949877
0.00982349
0.010051
0.0101183
0.00991819
0.00915273
0.00693255
0.0015126
0.00123757
0.00180781
0.00233931
0.00282328
0.00315239
0.00306166
0.000996564
0.000879448
0.000785344
0.000709473
0.000647729
0.000596946
0.000554858
0.000520016
0.000491858
0.000531051
0.000613907
0.00103926
0.000554308
0.00256587
0.00783546
0.00548989
0.00719938
0.00780318
0.00803357
0.00820536
0.00841924
0.00873432
0.00913171
0.0095491
0.00992141
0.010177
0.0102265
0.0099978
0.00913846
0.00626565
0.00178495
0.0022316
0.00290519
0.00356514
0.00408698
0.0043957
0.00409685
0.00112072
0.00102053
0.000949103
0.000894381
0.000847289
0.000804101
0.000762508
0.000718852
0.000668251
0.00062622
0.00064527
0.0012205
0.00061347
0.00294482
0.00996322
0.00607965
0.00699263
0.0077479
0.00783066
0.00781525
0.0079758
0.00826365
0.0086855
0.00915863
0.00959639
0.00989382
0.00998555
0.00986239
0.00948197
0.00861487
0.00714262
0.00663914
0.00647856
0.00641902
0.00636478
0.00626344
0.00597984
0.00500732
0.00454427
0.00427393
0.0040635
0.0038428
0.00352587
0.00310804
0.00261157
0.0020692
0.00153187
0.00113303
0.00119517
0.000805393
0.000746712
0.000891926
0.000999123
0.00334462
0.0122675
0.00832709
0.00713404
0.00767786
0.0078271
0.00777273
0.00787832
0.00810477
0.00849099
0.00899356
0.00948181
0.00980571
0.00987085
0.00968673
0.00935141
0.00897357
0.00860966
0.00839522
0.00819884
0.00795189
0.00766651
0.00735677
0.00700126
0.00653248
0.0061344
0.00579566
0.00548094
0.0051669
0.00482373
0.00438568
0.00383689
0.00318174
0.00246619
0.00184314
0.00137398
0.00107873
0.000951594
0.00137694
0.00104848
0.0036993
0.0138286
0.0114664
0.00918633
0.00879305
0.00849309
0.00816368
0.00803046
0.00817186
0.00858097
0.00915121
0.00969622
0.0100244
0.0100272
0.00973976
0.00934611
0.00908614
0.00903471
0.00900964
0.00881893
0.0084554
0.00799576
0.00749619
0.00698687
0.00649313
0.00606699
0.00569782
0.005366
0.00506525
0.00479932
0.00456376
0.0041891
0.00365944
0.00302447
0.00243027
0.00189861
0.0015508
0.00148438
0.00155951
0.00121089
0.00375783
0.0120573
0.0108918
0.0100857
0.00930507
0.00852098
0.00803309
0.00796939
0.00831737
0.008961
0.00969847
0.0102862
0.0105276
0.0103583
0.00989135
0.00941608
0.00921698
0.00922788
0.00905808
0.00860933
0.00798585
0.00729305
0.00661355
0.00601176
0.00552154
0.00513665
0.00482678
0.00457396
0.00437663
0.00424238
0.00417916
0.00414065
0.00382587
0.00340352
0.00304706
0.00289978
0.00310934
0.0037848
0.00475102
0.00186257
0.00364745
0.00430484
0.00474776
0.00485848
0.00510924
0.00566275
0.00653767
0.00767413
0.00892358
0.0100809
0.0109289
0.0112866
0.0111004
0.0105017
0.00980754
0.00937862
0.00908227
0.00872624
0.00815406
0.00739126
0.00655654
0.0057699
0.00511363
0.00461233
0.00424201
0.00396021
0.00373216
0.00353818
0.00336713
0.00321065
0.00306192
0.00292546
0.00281821
0.00274836
0.00273843
0.00277292
0.00276768
0.00264849
0.00245946
0.00171265
0.00173929
0.00438284
0.00789222
0.0101679
0.0116683
0.0125881
0.0129758
0.0129139
0.0124949
0.0118179
0.0108494
0.00984316
0.00905613
0.00848403
0.00788836
0.00716016
0.00633997
0.0055173
0.00477524
0.00418625
0.0037589
0.00345713
0.00323865
0.00307235
0.00294049
0.00283509
0.00275411
0.00269957
0.00267747
0.00268572
0.0027106
0.00274826
0.00278549
0.00278556
0.00269335
0.00249023
0.00218992
0.00138025
0.00261829
0.00800978
0.0110073
0.0117816
0.0120223
0.0118569
0.0113153
0.0105368
0.00965407
0.00878785
0.00796666
0.0072629
0.00666344
0.00605522
0.00539695
0.00474304
0.00415106
0.00365511
0.00326541
0.00297017
0.00276023
0.00261467
0.00251763
0.00245993
0.00243617
0.00244151
0.00246952
0.00251411
0.0025852
0.00267689
0.00278452
0.00289906
0.00300105
0.00307347
0.00305927
0.00305987
0.00276305
0.00139744
0.00231624
0.00245731
0.00255867
0.00273868
0.00262494
0.00252242
0.00243984
0.00232117
0.00216116
0.00196912
0.00175495
0.00153683
0.0013403
0.00118157
0.00106157
0.000972887
0.000907411
0.000859424
0.000825789
0.000804854
0.000795334
0.00079527
0.000802029
0.000814609
0.000832426
0.000855238
0.000883078
0.000916296
0.000955711
0.00100248
0.00105582
0.00111631
0.00118439
0.00126061
0.00134492
0.00145703
0.00148842
0.00145126
0.00135373
0.00124853
)
;

boundaryField
{
    floor
    {
        type            compressible::alphatWallFunction;
        Prt             0.85;
        value           nonuniform List<scalar> 
29
(
0.000202964
8.41459e-05
0.000102691
0.000115747
0.000115383
0.000111487
0.00010623
9.94767e-05
9.27044e-05
8.65037e-05
8.09539e-05
7.60018e-05
7.15708e-05
6.76084e-05
6.40269e-05
6.07071e-05
5.74908e-05
5.41518e-05
5.20909e-05
4.69505e-05
4.69499e-05
6.52728e-05
7.74694e-05
8.6356e-05
0.000202962
8.41449e-05
8.9941e-05
0.000175287
0.000248883
)
;
    }
    ceiling
    {
        type            compressible::alphatWallFunction;
        Prt             0.85;
        value           nonuniform List<scalar> 
43
(
0.000317795
0.000335823
0.000348711
0.000371623
0.000357323
0.000344347
0.00033385
0.000318687
0.000298104
0.000273177
0.000245059
0.00021603
0.000189477
0.00016771
0.000151033
0.000138568
0.00012928
0.000122422
0.000117589
0.000114569
0.000113192
0.000113183
0.00011416
0.000115977
0.000118544
0.000121822
0.000125808
0.000130545
0.000136139
0.000142742
0.000150231
0.000158669
0.000168103
0.000178593
0.000190112
0.000205306
0.000209535
0.000204528
0.000191313
0.00017694
0.000484601
0.000564293
0.000356026
)
;
    }
    sWall
    {
        type            compressible::alphatWallFunction;
        Prt             0.85;
        value           uniform 0.000316523;
    }
    nWall
    {
        type            compressible::alphatWallFunction;
        Prt             0.85;
        value           nonuniform List<scalar> 6(0.000141921 0.000148847 0.000171391 0.000194569 0.000196899 0.000176593);
    }
    sideWalls
    {
        type            empty;
    }
    glass1
    {
        type            compressible::alphatWallFunction;
        Prt             0.85;
        value           nonuniform List<scalar> 9(0.000182135 0.000245112 0.000295786 0.000343192 0.000390562 0.000439901 0.000483216 0.000490468 0.000477314);
    }
    glass2
    {
        type            compressible::alphatWallFunction;
        Prt             0.85;
        value           nonuniform List<scalar> 2(0.000257133 0.000237539);
    }
    sun
    {
        type            compressible::alphatWallFunction;
        Prt             0.85;
        value           nonuniform List<scalar> 
14
(
0.000186886
0.00020409
0.000207858
0.000217656
0.000226792
0.000235411
0.00024396
0.000251815
0.0002571
0.000258948
0.000256588
0.000249525
0.000237573
0.000221377
)
;
    }
    heatsource1
    {
        type            compressible::alphatWallFunction;
        Prt             0.85;
        value           nonuniform List<scalar> 3(0.000106154 0.000127098 0.000142297);
    }
    heatsource2
    {
        type            compressible::alphatWallFunction;
        Prt             0.85;
        value           nonuniform List<scalar> 4(0.000208494 0.000121253 0.000121251 0.000212812);
    }
    Table_master
    {
        type            compressible::alphatWallFunction;
        Prt             0.85;
        value           nonuniform List<scalar> 9(0.000141933 0.000125312 0.000111768 0.000100706 9.15981e-05 8.40276e-05 7.7693e-05 7.24037e-05 6.80967e-05);
    }
    Table_slave
    {
        type            compressible::alphatWallFunction;
        Prt             0.85;
        value           nonuniform List<scalar> 9(0.000159309 0.000145309 0.00013523 0.000127448 0.000120706 0.000114485 0.000108455 0.000102083 9.46388e-05);
    }
    inlet
    {
        type            fixedValue;
        value           uniform 1.94e-05;
    }
    outlet
    {
        type            zeroGradient;
    }
}


// ************************************************************************* //
