/*--------------------------------*- C++ -*----------------------------------*\
  =========                 |
  \\      /  F ield         | OpenFOAM: The Open Source CFD Toolbox
   \\    /   O peration     | Website:  https://openfoam.org
    \\  /    A nd           | Version:  6
     \\/     M anipulation  |
\*---------------------------------------------------------------------------*/
FoamFile
{
    version     2.0;
    format      ascii;
    class       volScalarField;
    location    "3000";
    object      epsilon;
}
// * * * * * * * * * * * * * * * * * * * * * * * * * * * * * * * * * * * * * //

dimensions      [0 2 -3 0 0 0 0];

internalField   nonuniform List<scalar> 
459
(
0.000519195
0.00068164
0.000721753
0.000834005
0.000949256
0.00106782
0.00119536
0.00132162
0.00141163
0.00144398
0.00140244
0.00128343
0.00109861
0.000879216
0.000669517
4.81005e-05
8.50578e-05
0.000120819
0.000119702
0.000108177
9.38942e-05
7.75684e-05
6.33224e-05
5.2e-05
4.31529e-05
3.62087e-05
3.07016e-05
2.63043e-05
2.27316e-05
1.97404e-05
1.71195e-05
1.46702e-05
1.32893e-05
1.02504e-05
0.0013102
0.00185608
0.000646179
0.000628818
0.000664528
0.000721009
0.000801725
0.000900735
0.000988492
0.00103768
0.00102884
0.0009581
0.000834785
0.000686165
0.000574744
0.000726264
0.000137976
5.80932e-05
0.000137187
0.000145705
0.000132917
0.000113401
9.51474e-05
8.58423e-05
6.96141e-05
5.52544e-05
4.38614e-05
3.50621e-05
2.82963e-05
2.31009e-05
1.91116e-05
1.61664e-05
1.43644e-05
1.3601e-05
3.54022e-05
2.39404e-05
0.00237497
0.00448907
0.00081196
0.000609885
0.000646994
0.000736976
0.000865348
0.00101506
0.00114111
0.00120932
0.00120403
0.00112935
0.000997289
0.00083952
0.000696862
0.000629854
0.000774636
0.000424623
0.000307634
0.000233558
0.000181239
0.000143269
0.000120977
0.00022182
0.000152446
0.000108558
8.00368e-05
6.09063e-05
4.76746e-05
3.82849e-05
3.1516e-05
2.66688e-05
2.02768e-05
1.71325e-05
6.76763e-05
3.81943e-05
0.00381729
0.0092198
0.00130247
0.000639401
0.000657024
0.000791324
0.000998976
0.00122211
0.00137875
0.00144552
0.0014229
0.00132527
0.00116193
0.000972593
0.000802511
0.000688013
0.000669046
0.00127335
0.000721285
0.000434435
0.000291418
0.000210378
0.000160496
0.000137688
0.000315661
0.000238375
0.000191762
0.000160483
0.000136454
0.00011664
9.94642e-05
8.33427e-05
6.69531e-05
3.93633e-05
2.63511e-05
0.000116564
5.17799e-05
0.00578202
0.0162676
0.00258808
0.000814755
0.000732552
0.000929694
0.00130607
0.00160194
0.00174754
0.00177458
0.00170904
0.00156494
0.00135579
0.00111202
0.00087343
0.000674795
0.000537512
0.000482128
0.000392578
0.000309275
0.000242261
0.000190895
0.000152727
0.000127717
0.000123516
0.000114899
0.000106217
9.75346e-05
8.83445e-05
7.87607e-05
6.94116e-05
6.06502e-05
5.25812e-05
4.15851e-05
3.21137e-05
8.183e-05
5.84161e-05
9.34703e-05
0.000159365
0.000224024
0.0084863
0.0239709
0.00578179
0.00168242
0.00125011
0.00158049
0.00210099
0.00229965
0.00232135
0.00225024
0.00211194
0.00189986
0.0016165
0.00129009
0.000968121
0.000698011
0.000507576
0.000396039
0.000324734
0.000266746
0.000215851
0.00017413
0.000142687
0.000122007
0.000112312
0.000108187
0.000105495
0.00010195
9.62268e-05
8.73106e-05
7.58335e-05
6.43391e-05
5.39961e-05
4.47678e-05
3.93216e-05
5.84675e-05
6.0191e-05
7.23845e-05
0.000297488
0.000258796
0.0115017
0.0284991
0.0116644
0.00534948
0.00397995
0.0039695
0.00376699
0.00348088
0.0031989
0.00294081
0.00267283
0.00234722
0.00194797
0.0015051
0.00107846
0.000731595
0.000496966
0.000362275
0.000285719
0.000231555
0.000187409
0.000153375
0.000130162
0.00011744
0.000113829
0.000115636
0.000119139
0.000122387
0.000123926
0.000121643
0.000111132
9.7668e-05
8.46591e-05
7.36047e-05
6.98431e-05
8.17694e-05
0.000107064
0.000181344
0.000424284
0.000398575
0.0120848
0.0298736
0.0171967
0.0122944
0.00965673
0.00753166
0.00600144
0.00498275
0.00432036
0.00384874
0.00341558
0.00291502
0.00232901
0.00171051
0.00114136
0.000709391
0.000444033
0.000303521
0.000231793
0.000186464
0.000153623
0.000131629
0.000119573
0.000116051
0.000119272
0.000127118
0.000138057
0.000151705
0.000168136
0.000187086
0.000206932
0.000215855
0.000226906
0.000251488
0.000302963
0.000471071
0.00091635
0.00184911
0.00542792
0.00145348
0.0110883
0.0181758
0.0146068
0.011183
0.00878386
0.007277
0.00637282
0.00583218
0.00544009
0.00500184
0.00438121
0.00354259
0.00260717
0.00172158
0.000983007
0.000527329
0.000324059
0.000228027
0.000176801
0.00014503
0.000124792
0.000113664
0.000110036
0.000112435
0.000119665
0.000131033
0.00014662
0.000167402
0.000195163
0.000232534
0.000283109
0.000352179
0.000447556
0.000594418
0.00080982
0.00109927
0.00142308
0.00169133
0.00188605
0.00113203
0.00375446
0.00660777
0.00844202
0.0089153
0.00889564
0.00842597
0.00744093
0.00605327
0.00446774
0.00283582
0.00170567
0.000990247
0.000563575
0.00034
0.000232766
0.000178385
0.000147467
0.000127934
0.000115703
0.000109331
0.000107778
0.00011012
0.000115807
0.000124737
0.000137299
0.000154478
0.000178026
0.000210808
0.00025735
0.000323727
0.000417046
0.000546426
0.000713982
0.000898988
0.00104405
0.00107651
0.000942335
0.000592434
0.00371888
0.0084545
0.00846652
0.00702592
0.00609548
0.00512242
0.00404966
0.00298798
0.00204173
0.00128214
0.00078159
0.000485742
0.000323418
0.00023969
0.000196595
0.000172091
0.000155854
0.000143792
0.000134508
0.000127864
0.00012418
0.000123485
0.00012594
0.000131974
0.000142323
0.00015808
0.000180844
0.000212964
0.00025782
0.000320056
0.000405879
0.000521379
0.0006667
0.000832003
0.000954422
0.0010603
0.000810179
0.000614779
0.00267323
0.00318959
0.00360057
0.00451879
0.00401577
0.00357755
0.00324544
0.00279972
0.002263
0.0017137
0.00121419
0.000815925
0.000541465
0.000371087
0.000269174
0.000207221
0.000168151
0.000142868
0.000126746
0.000117352
0.000113238
0.00011321
0.000116121
0.000121671
0.00012983
0.000140798
0.000154999
0.000173155
0.000196475
0.000226751
0.000264909
0.000313098
0.000373953
0.00045091
0.000547595
0.00069636
0.000742416
0.000688252
0.000558628
0.000438423
)
;

boundaryField
{
    floor
    {
        Cmu             0.09;
        kappa           0.41;
        E               9.8;
        type            epsilonWallFunction;
        value           nonuniform List<scalar> 
29
(
0.000669517
4.81005e-05
8.50578e-05
0.000120819
0.000119702
0.000108177
9.38942e-05
7.75684e-05
6.33224e-05
5.2e-05
4.31529e-05
3.62087e-05
3.07016e-05
2.63043e-05
2.27316e-05
1.97404e-05
1.71195e-05
1.46702e-05
1.32893e-05
1.02504e-05
1.02504e-05
2.39404e-05
3.81943e-05
5.17799e-05
0.000669517
4.81005e-05
5.80932e-05
0.000424623
0.00127335
)
;
    }
    ceiling
    {
        Cmu             0.09;
        kappa           0.41;
        E               9.8;
        type            epsilonWallFunction;
        value           nonuniform List<scalar> 
43
(
0.00267323
0.00318959
0.00360057
0.00451879
0.00401577
0.00357755
0.00324544
0.00279972
0.002263
0.0017137
0.00121419
0.000815925
0.000541465
0.000371087
0.000269174
0.000207221
0.000168151
0.000142868
0.000126746
0.000117352
0.000113238
0.00011321
0.000116121
0.000121671
0.00012983
0.000140798
0.000154999
0.000173155
0.000196475
0.000226751
0.000264909
0.000313098
0.000373953
0.00045091
0.000547595
0.00069636
0.000742416
0.000688252
0.000558628
0.000438423
0.0110883
0.0181758
0.00371888
)
;
    }
    sWall
    {
        Cmu             0.09;
        kappa           0.41;
        E               9.8;
        type            epsilonWallFunction;
        value           uniform 0.00267323;
    }
    nWall
    {
        Cmu             0.09;
        kappa           0.41;
        E               9.8;
        type            epsilonWallFunction;
        value           nonuniform List<scalar> 6(0.000224024 0.000258796 0.000398575 0.000592434 0.000614779 0.000438423);
    }
    sideWalls
    {
        type            empty;
    }
    glass1
    {
        Cmu             0.09;
        kappa           0.41;
        E               9.8;
        type            epsilonWallFunction;
        value           nonuniform List<scalar> 9(0.000519195 0.0013102 0.00237497 0.00381729 0.00578202 0.0084863 0.0115017 0.0120848 0.0110883);
    }
    glass2
    {
        Cmu             0.09;
        kappa           0.41;
        E               9.8;
        type            epsilonWallFunction;
        value           nonuniform List<scalar> 2(0.00145348 0.00113203);
    }
    sun
    {
        Cmu             0.09;
        kappa           0.41;
        E               9.8;
        type            epsilonWallFunction;
        value           nonuniform List<scalar> 
14
(
0.000519195
0.00068164
0.000721753
0.000834005
0.000949256
0.00106782
0.00119536
0.00132162
0.00141163
0.00144398
0.00140244
0.00128343
0.00109861
0.000879216
)
;
    }
    heatsource1
    {
        Cmu             0.09;
        kappa           0.41;
        E               9.8;
        type            epsilonWallFunction;
        value           nonuniform List<scalar> 3(9.34703e-05 0.000159365 0.000224024);
    }
    heatsource2
    {
        Cmu             0.09;
        kappa           0.41;
        E               9.8;
        type            epsilonWallFunction;
        value           nonuniform List<scalar> 4(0.000726264 0.000137976 0.000137976 0.000774636);
    }
    Table_master
    {
        Cmu             0.09;
        kappa           0.41;
        E               9.8;
        type            epsilonWallFunction;
        value           nonuniform List<scalar> 9(0.00022182 0.000152446 0.000108558 8.00368e-05 6.09063e-05 4.76746e-05 3.82849e-05 3.1516e-05 2.66688e-05);
    }
    Table_slave
    {
        Cmu             0.09;
        kappa           0.41;
        E               9.8;
        type            epsilonWallFunction;
        value           nonuniform List<scalar> 9(0.000315661 0.000238375 0.000191762 0.000160483 0.000136454 0.00011664 9.94642e-05 8.33427e-05 6.69531e-05);
    }
    inlet
    {
        type            turbulentMixingLengthDissipationRateInlet;
        mixingLength    0.01;
        phi             phi;
        k               k;
        value           uniform 0.000101881;
    }
    outlet
    {
        type            zeroGradient;
    }
}


// ************************************************************************* //
