/*--------------------------------*- C++ -*----------------------------------*=========                 |
  \      /  F ield         | OpenFOAM: The Open Source CFD Toolbox
   \    /   O peration     | Website:  https://openfoam.org
    \  /    A nd           | Version:  6
     \/     M anipulation  |
\*---------------------------------------------------------------------------*/
FoamFile
{
    version     2.0;
    format      ascii;
    class       volScalarField;
    location    "3000";
    object      PMV;
}
// * * * * * * * * * * * * * * * * * * * * * * * * * * * * * * * * * * * * * //

dimensions      [0 0 0 0 0 0 0];

internalField   nonuniform List<scalar> 
459
(
1.6573627288134156
1.441937345947536
1.4159203939273215
1.3929919745266655
1.3774825295643305
1.3679532539319117
1.3655705099830169
1.3686406571730347
1.3785314013720438
1.3947985617980376
1.4199279779832152
1.454953429977346
1.5014340159438568
1.5407054206384516
1.5445270362700096
1.6075665220738522
1.5946743107171373
1.5903766093431444
1.592286717011553
1.5946743107171373
1.5970618587817043
1.5952797203244187
1.5910003303993336
1.5904629649558364
1.591375840122761
1.5923821681009882
1.5942914100638308
1.596282545582998
1.5996509644325827
1.6044693790860103
1.613889866370671
1.6218895949816297
1.625231396703756
1.637165618755792
1.6202111957912935
1.4628698943272838
1.454899751062841
1.4340676931743115
1.4212932311079374
1.4142877164566527
1.4117614748204452
1.4140265720781795
1.41878200397193
1.4267605590509027
1.4410507212747419
1.4646710945937707
1.497889397530565
1.5325841440591004
1.5330618790261215
1.5325841440591004
1.5311509296158572
1.570606145372994
1.586078761457078
1.5822583303245592
1.5837050794980645
1.5778508044625423
1.5735216127631706
1.5716067559791904
1.5721702596453913
1.573295240022558
1.5740882716825684
1.5742520081896894
1.5744982000651648
1.5753667049396467
1.5764429193271776
1.5784934127172496
1.5861671257987962
1.6037467485476822
1.6089989062313634
1.6006780082362608
1.6623027522973757
1.4657507757638792
1.4902580251022686
1.4807046247242677
1.478116179385765
1.47765457228786
1.4789266012425304
1.4800959452642746
1.4761497918119517
1.4690054404946442
1.4655266982759245
1.4708398458375973
1.4881719415084942
1.5182253569626722
1.5306731882931257
1.5325841440591004
1.5335396123998883
1.4814406685583328
1.5223666347280205
1.5353973435339339
1.54448100880885
1.5540563946251185
1.5604722392364587
1.5638334762818202
1.5716972452695321
1.576686812356593
1.5791492688494944
1.580182631493398
1.5806599405618222
1.5805678930694242
1.579107737096297
1.5742545143927202
1.5760940519697302
1.5936807235984294
1.5854103431715267
1.5391773011523722
1.738357578713341
1.4712846017020342
1.5180576110016328
1.5279887449896856
1.545765663206884
1.5615775679848876
1.5738195822392527
1.5700329100220103
1.5449794856039378
1.5091672722446525
1.478702906738263
1.4619850937047405
1.4642755606500395
1.4841901124835766
1.5150769465455256
1.5335396123998883
1.5204039077294218
1.4794532204106448
1.4780412021637768
1.5054501788788677
1.5310825040377392
1.5522449364101782
1.570269157144247
1.5836239454716883
1.5877707222477486
1.5861868682648164
1.5850785230281457
1.5855767328889054
1.5868050782884555
1.5900185111441878
1.5961631696583072
1.6077260378511598
1.6299816821766
1.623378787943203
1.6082087277423627
1.5656814900387837
1.4955672969696086
1.82828528085515
1.4919887619629706
1.5450928399143238
1.5737470964870717
1.6210264791847795
1.6748003418314188
1.7006339166396907
1.657415905970587
1.5872241662352837
1.5183866352128896
1.4683480135342395
1.4401202023821924
1.4357315215931556
1.451771601387545
1.4801457491648597
1.5070097682549077
1.5144145894759216
1.5118836550199264
1.5198883874275555
1.5445886903458785
1.573810675158794
1.6001764622604435
1.6219973792895135
1.6381203029890576
1.6467120988365087
1.6496679066894246
1.649574092994942
1.6490558369340007
1.6474407312184498
1.6452461340370812
1.6449472611553309
1.6458294856192175
1.6471434462353214
1.6337862350522798
1.6073185945349469
1.5482392335818946
1.54156479475689
1.6696202939457823
1.656909816790503
1.4943397262505778
1.917831345806268
1.5343866420034298
1.5975670839885365
1.6270639874364776
1.6953861169613496
1.7235301456570353
1.7170074690366117
1.6384539636607607
1.5615171479251841
1.4905429414066884
1.4368190573412132
1.4088312937504937
1.4075833342222237
1.4295809335109693
1.4664282963080193
1.5063762844889408
1.5378265289571336
1.5600111571090776
1.5835766799902384
1.6140854061399525
1.630959977160995
1.6452801783991953
1.6567350252608877
1.6658025970946024
1.6734378540560917
1.6791639354857446
1.683458290877119
1.686321095668813
1.6872753462711634
1.686321095668813
1.6825040050085662
1.6777324443970891
1.6691276378300515
1.643832561368106
1.6095985131159534
1.5479454965443316
1.5449320927800334
1.5600063196767315
1.5591802797556418
1.5711876582945354
2.007140670339253
1.6299921099741086
1.7490755156337654
1.722425799173125
1.7187528714964457
1.694903597883651
1.6437567421127144
1.572498309276963
1.4946930815455384
1.4259105297171308
1.3809805613417734
1.3672474327130884
1.3838432462766381
1.4239286439274181
1.4800079743810792
1.5415691161151746
1.5841685601676985
1.6075665220738522
1.6285731029524408
1.6471894015756516
1.6629392353616186
1.6753465824986438
1.685366836224295
1.6925235657635165
1.6982485871062682
1.702065087072269
1.7049273662650128
1.7058814409915959
1.7054044047769763
1.7025421393221023
1.6972944394261145
1.6901380448537184
1.6815497103661117
1.6697739344843001
1.6294813436048328
1.5720869196464047
1.5499103864366715
1.5390410433177166
1.5133520917867216
1.5974667059035368
2.139435984490555
1.9486080061832394
1.9044068012418034
1.805040147266353
1.7472010376739069
1.6677131530386808
1.5661255033938386
1.4612899386731109
1.3729775824395587
1.317898572485988
1.30223169506213
1.3257398686973492
1.3800351795491588
1.45497216255539
1.5435209713898659
1.5879889340739206
1.6199799513901627
1.6462347940593307
1.6667570340684432
1.682026858782987
1.6944319422115
1.7034962369671056
1.710651676299186
1.7154216794416883
1.7187605423119012
1.720668412090756
1.721145373619702
1.720668412090756
1.7187605423119012
1.7154216794416883
1.710651676299186
1.7025421393221023
1.6949090307110897
1.685366836224295
1.6743922225924024
1.6634164675978704
1.6435855053760458
1.6321525208870966
1.5711462600683122
1.486396229687224
2.3366513750322966
2.204418352150156
2.0383797794235505
1.8587030948060232
1.6582044750647287
1.446345655507442
1.2767520135234363
1.1705234743908497
1.1338304498783314
1.1584639219165982
1.229711970331631
1.3338006469122674
1.4538744267897359
1.540227711371474
1.5946743107171373
1.638597642103946
1.6672342493703072
1.686798222076338
1.7011109757288378
1.7120827017202724
1.7201914481932623
1.7226632951897105
1.7213429014704695
1.7199020511475935
1.716986059572917
1.7134761398483063
1.7085062218456635
1.7018355624977795
1.6941458819445465
1.6844541392050854
1.6728560071638114
1.6605622920723948
1.649318932902857
1.6350191333410646
1.6188475890310616
1.6050287635431548
1.5954032548458863
1.590224387891085
1.5796865874540245
1.5492372642460024
-2.9712303505276956
-1.8095974897605387
-1.1256105426739929
-0.38822724298822797
0.16672654988417623
0.5973190686514102
0.9470834792360945
1.2127008217920883
1.3758108630514403
1.5005723614367972
1.5760498875625384
1.6271409548653468
1.651723135200792
1.6674154959259329
1.6796988217180167
1.6883694463389816
1.6935759084887703
1.696595202392853
1.697382184638794
1.6962548596522677
1.694186080538113
1.6910224889155958
1.6870632313380451
1.6826505163428038
1.6772871548581154
1.6715880104999319
1.6658237132551121
1.660845297562619
1.6565617103325996
1.6538923215225272
1.6521903185204907
1.6506356681461514
1.6502660755697915
1.6523059798134447
1.662322613412959
1.6977529015263613
1.7695077347178498
1.6126699791816068
-2.4604943418616183
-0.9957782639757574
0.04216895898383111
0.5709105134483982
0.8976629579925891
1.100001423258125
1.2536243166888248
1.3726349493485057
1.4645854430917808
1.5336330589352756
1.5804385065370512
1.6130406009419076
1.6363631681391737
1.6527400613412313
1.6634704761895516
1.6712261126233545
1.6760197764766671
1.6785031228315601
1.679978729439767
1.680834269242227
1.680893153535912
1.6801135175448734
1.6789798913965541
1.6770307579350083
1.675327148542888
1.673537224101997
1.671433699040042
1.6709619517372754
1.6712410752526665
1.6746643589426324
1.6816081899856992
1.6929894130631926
1.7049428392597756
1.715077411401412
1.7269537416525869
1.7648532461549702
1.7000590234788504
1.650656951568459
-0.8642643892639076
-1.0033283063949219
-0.8830870783392452
0.3642728141559874
0.8792898624613467
1.0961130814562516
1.2297521905357456
1.332895908596147
1.4163357381627653
1.4842082788703252
1.539057082138516
1.5814402546138127
1.6118775766051694
1.6328770251506743
1.6463693188180544
1.6541035193862064
1.657704632369578
1.6589532664772058
1.6590426424386164
1.6585025456895106
1.6581303079878
1.6578872009608268
1.6579985025633033
1.6579182444982807
1.6586270716611575
1.6591452484952263
1.660091081108332
1.6622081061048888
1.6648847585314197
1.6696346033137948
1.676623424408151
1.6881228364464413
1.7094914368663099
1.747743791810938
1.7750262029866226
1.78122278888763
1.7484288047670473
1.70646954955421
1.6645633588489663
1.670008248003158
)
;

boundaryField
{
    ".*"
    {
        type            zeroGradient;
    }
}


// ************************************************************************* //
