/*--------------------------------*- C++ -*----------------------------------*\
  =========                 |
  \\      /  F ield         | OpenFOAM: The Open Source CFD Toolbox
   \\    /   O peration     | Website:  https://openfoam.org
    \\  /    A nd           | Version:  6
     \\/     M anipulation  |
\*---------------------------------------------------------------------------*/
FoamFile
{
    version     2.0;
    format      ascii;
    class       volVectorField;
    location    "3000";
    object      U;
}
// * * * * * * * * * * * * * * * * * * * * * * * * * * * * * * * * * * * * * //

dimensions      [0 1 -1 0 0 0 0];

internalField   nonuniform List<vector> 
459
(
(0.033689 0.0881153 0)
(-0.171422 0.0263608 0)
(-0.196406 0.0178367 0)
(-0.227076 0.0119275 0)
(-0.248752 0.00545449 0)
(-0.260485 -0.00131972 0)
(-0.260839 -0.00840607 0)
(-0.2491 -0.0157709 0)
(-0.22617 -0.0227029 0)
(-0.194022 -0.028114 0)
(-0.156037 -0.0311671 0)
(-0.115945 -0.0315768 0)
(-0.0772771 -0.0297125 0)
(-0.0451053 -0.0270345 0)
(-0.0345302 -0.025345 0)
(-0.00230891 0.00854556 0)
(-0.0274558 -0.0197163 0)
(-0.00162215 -0.0295373 0)
(0.022499 -0.0219326 0)
(0.0398507 -0.0147766 0)
(0.0529013 -0.00944881 0)
(0.0607013 -0.00561962 0)
(0.0645834 -0.00361519 0)
(0.0662958 -0.00275455 0)
(0.0671494 -0.00234062 0)
(0.0676701 -0.00207101 0)
(0.0679286 -0.0018505 0)
(0.0678579 -0.00158474 0)
(0.0672412 -0.00109583 0)
(0.0654902 1.25981e-05 0)
(0.0613545 0.0022906 0)
(0.0534882 0.00465521 0)
(0.0464492 0.00653501 0)
(-0.0146881 0.0228546 0)
(0.210233 0.180063 0)
(-0.158674 0.0693974 0)
(-0.157062 0.0528178 0)
(-0.188438 0.0403549 0)
(-0.209685 0.0263766 0)
(-0.221489 0.0109452 0)
(-0.222371 -0.00604646 0)
(-0.211591 -0.0237524 0)
(-0.190619 -0.0397735 0)
(-0.161747 -0.0516911 0)
(-0.128408 -0.0579064 0)
(-0.0940415 -0.0581308 0)
(-0.061794 -0.0529718 0)
(-0.0351356 -0.0439804 0)
(-0.0183972 -0.0329945 0)
(-0.00467882 -0.0149344 0)
(-0.00470231 0.0172344 0)
(0.0734029 0.0359646 0)
(0.0320668 -0.0206987 0)
(0.0395762 -0.0338336 0)
(0.0515902 -0.0291089 0)
(0.0609791 -0.0202433 0)
(0.0673348 -0.0120226 0)
(0.0699409 -0.00495422 0)
(0.0703341 -0.00103435 0)
(0.0702223 0.000610341 0)
(0.0702979 0.00134767 0)
(0.0704734 0.00179607 0)
(0.0705982 0.00217314 0)
(0.070622 0.00265579 0)
(0.0704924 0.00360761 0)
(0.0696445 0.0059843 0)
(0.0654918 0.012604 0)
(0.0550621 0.0180559 0)
(0.0505355 0.0215813 0)
(-0.0558875 0.0492829 0)
(0.371561 0.26895 0)
(-0.173911 0.11 0)
(-0.117433 0.0849891 0)
(-0.147289 0.06295 0)
(-0.165805 0.0400439 0)
(-0.176237 0.0151189 0)
(-0.176126 -0.012279 0)
(-0.164509 -0.0403028 0)
(-0.144021 -0.0647139 0)
(-0.117545 -0.0818705 0)
(-0.0885978 -0.0898015 0)
(-0.0598695 -0.0887819 0)
(-0.0334421 -0.0799124 0)
(-0.0114072 -0.0649874 0)
(0.00505414 -0.0446354 0)
(0.0165507 -0.0190721 0)
(0.0227166 0.0175409 0)
(0.120438 -0.0384269 0)
(0.0790616 -0.0451552 0)
(0.0733365 -0.0425926 0)
(0.0754454 -0.0348684 0)
(0.0770629 -0.0252582 0)
(0.0781282 -0.0169798 0)
(0.0765281 -0.0135196 0)
(0.0720389 -0.00946875 0)
(0.0689162 -0.00726715 0)
(0.067554 -0.00600598 0)
(0.0670059 -0.00519855 0)
(0.0667649 -0.00463226 0)
(0.0668543 -0.00409653 0)
(0.0677691 -0.00321231 0)
(0.0707812 9.38485e-05 0)
(0.0684246 0.0181821 0)
(0.0537107 0.0306664 0)
(0.0572337 0.0387151 0)
(-0.0926421 0.0763392 0)
(0.516422 0.340211 0)
(-0.206996 0.14587 0)
(-0.0763271 0.111991 0)
(-0.103608 0.081686 0)
(-0.116334 0.0520296 0)
(-0.122479 0.0190435 0)
(-0.117739 -0.0186357 0)
(-0.102991 -0.0569547 0)
(-0.0826123 -0.0884588 0)
(-0.0596052 -0.10911 0)
(-0.0370672 -0.117305 0)
(-0.016133 -0.114586 0)
(0.00274071 -0.102295 0)
(0.0185259 -0.0831061 0)
(0.0321504 -0.059339 0)
(0.0470205 -0.0322444 0)
(0.0697344 -0.00251511 0)
(0.102179 0.0120978 0)
(0.108335 -0.0298553 0)
(0.0927164 -0.0390847 0)
(0.0834115 -0.036262 0)
(0.0789447 -0.0305008 0)
(0.0759732 -0.0230454 0)
(0.0745326 -0.0140031 0)
(0.0766847 -0.00833921 0)
(0.0818362 -0.00645463 0)
(0.0861123 -0.0053563 0)
(0.0889704 -0.00447823 0)
(0.0906176 -0.00339348 0)
(0.0903962 -0.00183567 0)
(0.0872222 0.000399515 0)
(0.0798446 0.003608 0)
(0.0652535 0.00839194 0)
(0.05292 0.0298033 0)
(0.0401953 0.0471991 0)
(0.0607685 0.0601932 0)
(-0.135789 0.0995 0)
(0.640523 0.395295 0)
(-0.247586 0.175094 0)
(-0.0366784 0.126917 0)
(-0.0579793 0.0917322 0)
(-0.0621156 0.0580284 0)
(-0.0600045 0.0186635 0)
(-0.0438139 -0.028941 0)
(-0.0247319 -0.0748831 0)
(-0.00621279 -0.109307 0)
(0.0104224 -0.12977 0)
(0.0231322 -0.135329 0)
(0.0332179 -0.129755 0)
(0.0410056 -0.115417 0)
(0.0473662 -0.0949366 0)
(0.0534998 -0.0709871 0)
(0.0613079 -0.0466723 0)
(0.0734994 -0.0279186 0)
(0.0843125 -0.0262696 0)
(0.0854005 -0.0346637 0)
(0.0783191 -0.0347439 0)
(0.0697139 -0.0305314 0)
(0.06314 -0.0253976 0)
(0.0585478 -0.0197156 0)
(0.0562101 -0.0135154 0)
(0.0566608 -0.00774858 0)
(0.059491 -0.00501402 0)
(0.0625672 -0.00390603 0)
(0.0654367 -0.00285671 0)
(0.0679315 -0.000840142 0)
(0.0695714 0.00263363 0)
(0.0690987 0.00758544 0)
(0.065988 0.0141454 0)
(0.0595542 0.0230328 0)
(0.0518702 0.0394694 0)
(0.0402468 0.0590295 0)
(0.0683617 0.080294 0)
(-0.0351617 0.111971 0)
(0.0475099 0.0267994 0)
(-0.06892 -0.037682 0)
(-0.286056 -0.0612749 0)
(0.729693 0.441002 0)
(-0.286793 0.194364 0)
(-0.0069745 0.121158 0)
(-0.00986002 0.0896591 0)
(-0.00105004 0.054931 0)
(0.0180653 0.0068321 0)
(0.0479942 -0.0484787 0)
(0.0677444 -0.0927374 0)
(0.0801645 -0.122711 0)
(0.085898 -0.138303 0)
(0.0862455 -0.140745 0)
(0.0830181 -0.132596 0)
(0.0776931 -0.116642 0)
(0.0718387 -0.0957735 0)
(0.0669022 -0.0727571 0)
(0.0641538 -0.0506033 0)
(0.0643392 -0.0333745 0)
(0.0644409 -0.0260643 0)
(0.0605377 -0.0256839 0)
(0.0527939 -0.025173 0)
(0.0443145 -0.0227074 0)
(0.0375117 -0.0194142 0)
(0.0328766 -0.0158219 0)
(0.0306537 -0.0120776 0)
(0.0309077 -0.0089669 0)
(0.0331343 -0.00781542 0)
(0.0362464 -0.00755262 0)
(0.039805 -0.00683698 0)
(0.0435782 -0.00461328 0)
(0.0473541 -3.18414e-05 0)
(0.0502843 0.00691905 0)
(0.0515354 0.0158081 0)
(0.0514589 0.0269406 0)
(0.0516289 0.0422368 0)
(0.0492549 0.0612912 0)
(0.0765453 0.0859425 0)
(0.0488209 0.1048 0)
(0.0975444 0.0695141 0)
(0.122202 0.0452521 0)
(-0.138196 -0.00986249 0)
(0.786199 0.482808 0)
(-0.304592 0.178897 0)
(0.0238101 0.0650814 0)
(0.0573485 0.0554048 0)
(0.0833047 0.0304344 0)
(0.126683 -0.0228487 0)
(0.155387 -0.0712683 0)
(0.169422 -0.105973 0)
(0.170706 -0.126701 0)
(0.16185 -0.134767 0)
(0.14596 -0.131937 0)
(0.126137 -0.120625 0)
(0.105071 -0.103578 0)
(0.0850073 -0.0834502 0)
(0.0675589 -0.0624715 0)
(0.0537203 -0.0430521 0)
(0.0437444 -0.028139 0)
(0.0360618 -0.0201616 0)
(0.0284126 -0.0176585 0)
(0.0202615 -0.0168118 0)
(0.012734 -0.0155748 0)
(0.00690331 -0.0140605 0)
(0.00307599 -0.0125406 0)
(0.00137131 -0.011136 0)
(0.00171885 -0.0103088 0)
(0.00360677 -0.0105257 0)
(0.00634449 -0.0110647 0)
(0.00967783 -0.0109634 0)
(0.013646 -0.00928629 0)
(0.0183783 -0.00495529 0)
(0.0250993 0.00293773 0)
(0.0308989 0.0127203 0)
(0.0364929 0.0239571 0)
(0.0438597 0.0375259 0)
(0.0512552 0.0530753 0)
(0.0763899 0.0731187 0)
(0.088721 0.0802189 0)
(0.12547 0.0520304 0)
(0.16797 0.0427468 0)
(-0.0317326 0.0967367 0)
(0.894086 0.482423 0)
(-0.0568349 0.157401 0)
(0.11913 -0.0234015 0)
(0.206573 -0.0589166 0)
(0.251777 -0.0717214 0)
(0.277153 -0.0883779 0)
(0.286515 -0.103954 0)
(0.279176 -0.113975 0)
(0.257253 -0.11725 0)
(0.224972 -0.113952 0)
(0.187027 -0.104883 0)
(0.14754 -0.0912761 0)
(0.109832 -0.074944 0)
(0.0762505 -0.0576794 0)
(0.0480633 -0.0407411 0)
(0.0260418 -0.025831 0)
(0.0103136 -0.0152959 0)
(-0.000637126 -0.0101599 0)
(-0.00878877 -0.00904391 0)
(-0.0155854 -0.00926894 0)
(-0.0212167 -0.0095206 0)
(-0.0254871 -0.00971579 0)
(-0.0283826 -0.00997245 0)
(-0.0299414 -0.0103975 0)
(-0.030327 -0.0111718 0)
(-0.0299348 -0.0123409 0)
(-0.0291584 -0.0135323 0)
(-0.0280906 -0.014249 0)
(-0.0265389 -0.0139742 0)
(-0.0240505 -0.0120957 0)
(-0.0194673 -0.00781675 0)
(-0.00886575 -0.000463321 0)
(-0.000523646 0.00840875 0)
(0.0107554 0.0170908 0)
(0.0223728 0.0247697 0)
(0.0436293 0.0334543 0)
(0.0621003 0.0255337 0)
(0.0808387 -0.0057076 0)
(0.14231 0.045119 0)
(-0.455931 0.222324 0)
(1.04626 0.426999 0)
(0.495636 0.278805 0)
(0.514671 0.173209 0)
(0.54974 0.0956738 0)
(0.530107 0.0422413 0)
(0.482762 -0.000373759 0)
(0.427998 -0.0317886 0)
(0.368034 -0.0511222 0)
(0.303652 -0.059558 0)
(0.238216 -0.0595422 0)
(0.175806 -0.0537524 0)
(0.119378 -0.0442202 0)
(0.0712115 -0.0331045 0)
(0.0318835 -0.0221126 0)
(0.000759745 -0.0121565 0)
(-0.0206167 -0.00529848 0)
(-0.032889 -0.00234609 0)
(-0.0404809 -0.00184479 0)
(-0.0459225 -0.00272125 0)
(-0.050523 -0.00404686 0)
(-0.0545164 -0.00537248 0)
(-0.0579172 -0.0066615 0)
(-0.0607885 -0.00794252 0)
(-0.0632568 -0.00924095 0)
(-0.0655448 -0.0105743 0)
(-0.067988 -0.011855 0)
(-0.0709274 -0.012798 0)
(-0.0746491 -0.0129888 0)
(-0.0794709 -0.0119034 0)
(-0.0858801 -0.00886642 0)
(-0.0945762 -0.00305765 0)
(-0.105273 0.00606267 0)
(-0.116236 0.018055 0)
(-0.133577 0.0332344 0)
(-0.161001 0.0513803 0)
(-0.200936 0.0704063 0)
(-0.257296 0.0849788 0)
(-0.320662 0.0921191 0)
(-0.392157 0.092577 0)
(-0.660585 0.0869059 0)
(-0.182401 -0.0198521 0)
(0.100872 -0.0339505 0)
(0.177536 -0.0539976 0)
(0.164905 -0.0469178 0)
(0.146117 -0.0340926 0)
(0.122432 -0.0223931 0)
(0.0907786 -0.0123744 0)
(0.0552055 -0.00455179 0)
(0.0204597 0.000814779 0)
(-0.0122506 0.00430202 0)
(-0.0361981 0.00550497 0)
(-0.0535845 0.00545591 0)
(-0.0648595 0.00438088 0)
(-0.0709821 0.00226818 0)
(-0.0744539 -0.000283014 0)
(-0.0769199 -0.00292112 0)
(-0.0791771 -0.00559005 0)
(-0.0816917 -0.00803163 0)
(-0.0845734 -0.00993719 0)
(-0.0876012 -0.0113952 0)
(-0.0907621 -0.0124689 0)
(-0.0941862 -0.0132059 0)
(-0.098043 -0.0136257 0)
(-0.102497 -0.0136441 0)
(-0.107632 -0.0130146 0)
(-0.113386 -0.0113361 0)
(-0.1195 -0.00809375 0)
(-0.125486 -0.00272391 0)
(-0.130608 0.00515144 0)
(-0.134436 0.0158474 0)
(-0.13747 0.0303823 0)
(-0.140303 0.0492024 0)
(-0.144081 0.071216 0)
(-0.14945 0.091766 0)
(-0.152875 0.0994112 0)
(-0.135028 0.0722257 0)
(-0.0814808 -0.0315967 0)
(-0.289039 -0.225856 0)
(0.0337338 0.198811 0)
(0.0141521 0.0647027 0)
(-0.0318572 0.012425 0)
(-0.0548596 0.0114387 0)
(-0.0726482 0.0173464 0)
(-0.0857927 0.0217777 0)
(-0.0946463 0.02544 0)
(-0.101435 0.0285363 0)
(-0.106352 0.0304631 0)
(-0.109649 0.0309565 0)
(-0.111146 0.0304942 0)
(-0.111305 0.0302502 0)
(-0.110375 0.0304796 0)
(-0.108901 0.0312381 0)
(-0.107486 0.0326749 0)
(-0.106424 0.0346112 0)
(-0.105866 0.0365246 0)
(-0.105873 0.0378144 0)
(-0.106354 0.0378618 0)
(-0.107333 0.0368899 0)
(-0.108773 0.0354725 0)
(-0.110649 0.033766 0)
(-0.112927 0.0318603 0)
(-0.115549 0.0298433 0)
(-0.118407 0.0278191 0)
(-0.121317 0.0258971 0)
(-0.123983 0.0241597 0)
(-0.125856 0.0228 0)
(-0.126006 0.0232866 0)
(-0.123099 0.0269658 0)
(-0.115514 0.0350225 0)
(-0.102096 0.0485597 0)
(-0.0832269 0.0673435 0)
(-0.0601948 0.086343 0)
(-0.03609 0.0971506 0)
(0.00746499 0.0795499 0)
(0.144354 0.00336163 0)
(-0.207524 -0.138704 0)
(-0.0928681 -0.347343 0)
(-0.447482 -0.138536 0)
(-0.333978 0.0448456 0)
(-0.291121 -0.0447593 0)
(-0.250054 -0.0516813 0)
(-0.238513 -0.0444103 0)
(-0.230423 -0.0374234 0)
(-0.221128 -0.033022 0)
(-0.209551 -0.030827 0)
(-0.195949 -0.0309598 0)
(-0.181285 -0.0339775 0)
(-0.166961 -0.0399017 0)
(-0.154217 -0.0480001 0)
(-0.14369 -0.0570265 0)
(-0.135481 -0.0663837 0)
(-0.129417 -0.0757702 0)
(-0.125104 -0.084741 0)
(-0.122082 -0.0927794 0)
(-0.120011 -0.0993653 0)
(-0.118715 -0.103997 0)
(-0.118175 -0.106341 0)
(-0.118394 -0.106578 0)
(-0.119267 -0.105378 0)
(-0.120618 -0.102971 0)
(-0.122278 -0.0995248 0)
(-0.124059 -0.0951193 0)
(-0.12571 -0.089736 0)
(-0.126878 -0.0832375 0)
(-0.127106 -0.0753366 0)
(-0.12579 -0.0657798 0)
(-0.121809 -0.0552371 0)
(-0.112988 -0.0435349 0)
(-0.0963524 -0.0301599 0)
(-0.0697947 -0.0141325 0)
(-0.0348212 0.00527923 0)
(0.0247316 0.0302403 0)
(0.0751696 0.0308581 0)
(0.123772 0.00900619 0)
(0.176901 -0.0319714 0)
(-0.177081 -0.100351 0)
)
;

boundaryField
{
    floor
    {
        type            noSlip;
    }
    ceiling
    {
        type            noSlip;
    }
    sWall
    {
        type            noSlip;
    }
    nWall
    {
        type            noSlip;
    }
    sideWalls
    {
        type            empty;
    }
    glass1
    {
        type            noSlip;
    }
    glass2
    {
        type            noSlip;
    }
    sun
    {
        type            noSlip;
    }
    heatsource1
    {
        type            noSlip;
    }
    heatsource2
    {
        type            noSlip;
    }
    Table_master
    {
        type            noSlip;
    }
    Table_slave
    {
        type            noSlip;
    }
    inlet
    {
        type            fixedValue;
        value           uniform (0.277164 -0.114805 0);
    }
    outlet
    {
        type            zeroGradient;
    }
}


// ************************************************************************* //
