/*--------------------------------*- C++ -*----------------------------------*\
  =========                 |
  \\      /  F ield         | OpenFOAM: The Open Source CFD Toolbox
   \\    /   O peration     | Website:  https://openfoam.org
    \\  /    A nd           | Version:  6
     \\/     M anipulation  |
\*---------------------------------------------------------------------------*/
FoamFile
{
    version     2.0;
    format      ascii;
    class       volScalarField;
    location    "1400";
    object      epsilon;
}
// * * * * * * * * * * * * * * * * * * * * * * * * * * * * * * * * * * * * * //

dimensions      [0 2 -3 0 0 0 0];

internalField   nonuniform List<scalar> 
459
(
0.000500471
0.000654538
0.000689215
0.000794933
0.000902978
0.00101315
0.00113006
0.00125064
0.00133974
0.00137766
0.00134827
0.00124651
0.00108295
0.000887703
0.000703059
4.44985e-05
7.95912e-05
0.000110236
0.000105742
9.38339e-05
8.0418e-05
6.6164e-05
5.39868e-05
4.43455e-05
3.6812e-05
3.08958e-05
2.62006e-05
2.24575e-05
1.94117e-05
1.68606e-05
1.46261e-05
1.25454e-05
1.15693e-05
9.08227e-06
0.00128135
0.00183356
0.000621519
0.000602135
0.000634457
0.000684872
0.000756211
0.000847351
0.000931721
0.000984053
0.000984244
0.000925422
0.000814623
0.000677463
0.00058383
0.000745943
0.00014855
5.6737e-05
0.000132487
0.000136036
0.000121175
0.000101374
8.36075e-05
7.39335e-05
5.97368e-05
4.73996e-05
3.76499e-05
3.0128e-05
2.43439e-05
1.99107e-05
1.65048e-05
1.39987e-05
1.24603e-05
1.18467e-05
3.47293e-05
2.26574e-05
0.00234223
0.00449118
0.00079118
0.00058521
0.000616871
0.000697306
0.000812283
0.000951653
0.00107614
0.00115122
0.0011585
0.00109784
0.000980354
0.000830255
0.000698776
0.000627685
0.000736188
0.000441884
0.000304222
0.000222711
0.000167959
0.000129916
0.000107563
0.000191586
0.000131821
9.41332e-05
6.9644e-05
5.3196e-05
4.17953e-05
3.36833e-05
2.78109e-05
2.35745e-05
1.7935e-05
1.52871e-05
6.88338e-05
3.71029e-05
0.00378876
0.00926849
0.00128658
0.000615048
0.000624115
0.00074254
0.000926709
0.00114021
0.00130251
0.00138243
0.00137631
0.00129502
0.00115174
0.000968683
0.000801422
0.000681437
0.000653962
0.00125224
0.000694047
0.000407914
0.000268129
0.000190219
0.000143027
0.000121165
0.000271619
0.000204348
0.000164178
0.000137575
0.000117343
0.000100431
8.58176e-05
7.20917e-05
5.80953e-05
3.43705e-05
2.37185e-05
0.000124179
5.06041e-05
0.00576558
0.0163677
0.00257684
0.000787509
0.000690554
0.000853769
0.00118892
0.00149333
0.00165917
0.00170709
0.00166105
0.00153728
0.00134803
0.0011174
0.000883827
0.000680951
0.000533247
0.000467396
0.000371809
0.000285872
0.000218624
0.00016889
0.000133361
0.000110941
0.00010709
9.95228e-05
9.20193e-05
8.46678e-05
7.6909e-05
6.85874e-05
6.04248e-05
5.28099e-05
4.59002e-05
3.65837e-05
2.90904e-05
8.43699e-05
5.91997e-05
9.50646e-05
0.000160728
0.000225501
0.00848831
0.0240913
0.00575605
0.00163577
0.00117084
0.00137091
0.00193294
0.00217473
0.00222716
0.00217788
0.00206033
0.00187305
0.00161537
0.00130836
0.00099414
0.000718456
0.000514239
0.000387877
0.000306243
0.000242988
0.000190958
0.00015091
0.000122485
0.000104884
9.72398e-05
9.43188e-05
9.25844e-05
9.01735e-05
8.58675e-05
7.85909e-05
6.83107e-05
5.77956e-05
4.83843e-05
4.02162e-05
3.63013e-05
5.8184e-05
6.13207e-05
7.31632e-05
0.000300881
0.00026026
0.0115339
0.0286167
0.0115899
0.00521999
0.00379927
0.00375331
0.0036128
0.00337121
0.0031119
0.00286839
0.00262009
0.00232419
0.00195782
0.00154025
0.00112346
0.000766796
0.000512099
0.000357294
0.000267477
0.000207594
0.00016293
0.000131182
0.000111149
0.000101218
9.9338e-05
0.000101954
0.000106018
0.000110059
0.000112858
0.000112396
0.000104538
9.17667e-05
7.94085e-05
6.92452e-05
6.68667e-05
7.9877e-05
0.000103575
0.000168296
0.000419578
0.000386586
0.0121271
0.0301434
0.0172333
0.0122978
0.00961512
0.00752203
0.00598036
0.00493655
0.00425274
0.00377627
0.0033626
0.00290307
0.00236057
0.00177307
0.00121456
0.000760314
0.000464542
0.000298823
0.000213456
0.000164842
0.000132989
0.000113386
0.000103631
0.00010165
0.000105522
0.000113409
0.0001242
0.000137794
0.000154428
0.000173977
0.000195123
0.000208609
0.000219455
0.000244265
0.000295838
0.000452454
0.000835417
0.00165802
0.00559239
0.00133387
0.0111221
0.0182668
0.0146935
0.0112139
0.00877229
0.0072157
0.00626589
0.00569459
0.00529721
0.00488786
0.00433128
0.00357685
0.00269748
0.00183806
0.0011074
0.000576157
0.000334595
0.000220796
0.00016281
0.000130022
0.000110901
0.000101212
9.85343e-05
0.000101192
0.000108103
0.000118807
0.000133609
0.00015364
0.000180807
0.000217887
0.000268748
0.000338498
0.000434945
0.000579065
0.000791857
0.00108146
0.0014159
0.00171507
0.00194052
0.0010685
0.00387894
0.00675591
0.00845433
0.00887086
0.00882466
0.00836355
0.00743638
0.00613941
0.00465075
0.00312525
0.00188752
0.00110776
0.000632708
0.000367426
0.000240632
0.000178161
0.000144645
0.000124863
0.000113103
0.000107073
0.000105419
0.000107237
0.00011213
0.000120156
0.000131828
0.0001482
0.000171045
0.00020321
0.000249203
0.000315359
0.000409373
0.000541852
0.000721385
0.000942365
0.00117815
0.00140206
0.00124722
0.000610942
0.00372278
0.00828799
0.00839534
0.00700471
0.00615353
0.00523981
0.00419155
0.00313854
0.00219162
0.00141751
0.000870598
0.000540664
0.000356621
0.000260857
0.000213534
0.000188591
0.000173139
0.000161639
0.000152028
0.000144153
0.000138588
0.000135556
0.000135406
0.000138732
0.000146369
0.00015944
0.000179503
0.000208824
0.000250833
0.000310013
0.000392512
0.000504948
0.00065015
0.000821743
0.00100414
0.00126406
0.000670884
0.000673797
0.00266719
0.00318085
0.00358959
0.00450024
0.00403127
0.00359537
0.00328228
0.0028609
0.00234361
0.00180464
0.00130382
0.000891134
0.000593872
0.000403844
0.000289263
0.000220362
0.000177878
0.00015095
0.000133738
0.000123201
0.00011774
0.000116134
0.000117271
0.000120942
0.000127177
0.000136203
0.000148441
0.000164582
0.000185776
0.000213973
0.000249962
0.000295977
0.000354567
0.000428999
0.000522504
0.000646258
0.000682215
0.000518248
0.000417952
0.000603509
)
;

boundaryField
{
    floor
    {
        Cmu             0.09;
        kappa           0.41;
        E               9.8;
        type            epsilonWallFunction;
        value           nonuniform List<scalar> 
29
(
0.000703059
4.44985e-05
7.95912e-05
0.000110236
0.000105742
9.38339e-05
8.0418e-05
6.6164e-05
5.39868e-05
4.43455e-05
3.6812e-05
3.08958e-05
2.62006e-05
2.24575e-05
1.94117e-05
1.68606e-05
1.46261e-05
1.25454e-05
1.15693e-05
9.08227e-06
9.08227e-06
2.26574e-05
3.71029e-05
5.06041e-05
0.000703059
4.44985e-05
5.6737e-05
0.000441884
0.00125224
)
;
    }
    ceiling
    {
        Cmu             0.09;
        kappa           0.41;
        E               9.8;
        type            epsilonWallFunction;
        value           nonuniform List<scalar> 
43
(
0.00266719
0.00318085
0.00358959
0.00450024
0.00403127
0.00359537
0.00328228
0.0028609
0.00234361
0.00180464
0.00130382
0.000891134
0.000593872
0.000403844
0.000289263
0.000220362
0.000177878
0.00015095
0.000133738
0.000123201
0.00011774
0.000116134
0.000117271
0.000120942
0.000127177
0.000136203
0.000148441
0.000164582
0.000185776
0.000213973
0.000249962
0.000295977
0.000354567
0.000428999
0.000522504
0.000646258
0.000682215
0.000518248
0.000417952
0.000603509
0.0111221
0.0182668
0.00372278
)
;
    }
    sWall
    {
        Cmu             0.09;
        kappa           0.41;
        E               9.8;
        type            epsilonWallFunction;
        value           uniform 0.00266719;
    }
    nWall
    {
        Cmu             0.09;
        kappa           0.41;
        E               9.8;
        type            epsilonWallFunction;
        value           nonuniform List<scalar> 6(0.000225501 0.00026026 0.000386586 0.000610942 0.000673797 0.000603509);
    }
    sideWalls
    {
        type            empty;
    }
    glass1
    {
        Cmu             0.09;
        kappa           0.41;
        E               9.8;
        type            epsilonWallFunction;
        value           nonuniform List<scalar> 9(0.000500471 0.00128135 0.00234223 0.00378876 0.00576558 0.00848831 0.0115339 0.0121271 0.0111221);
    }
    glass2
    {
        Cmu             0.09;
        kappa           0.41;
        E               9.8;
        type            epsilonWallFunction;
        value           nonuniform List<scalar> 2(0.00133387 0.0010685);
    }
    sun
    {
        Cmu             0.09;
        kappa           0.41;
        E               9.8;
        type            epsilonWallFunction;
        value           nonuniform List<scalar> 
14
(
0.000500471
0.000654538
0.000689215
0.000794933
0.000902978
0.00101315
0.00113006
0.00125064
0.00133974
0.00137766
0.00134827
0.00124651
0.00108295
0.000887703
)
;
    }
    heatsource1
    {
        Cmu             0.09;
        kappa           0.41;
        E               9.8;
        type            epsilonWallFunction;
        value           nonuniform List<scalar> 3(9.50646e-05 0.000160728 0.000225501);
    }
    heatsource2
    {
        Cmu             0.09;
        kappa           0.41;
        E               9.8;
        type            epsilonWallFunction;
        value           nonuniform List<scalar> 4(0.000745943 0.00014855 0.00014855 0.000736188);
    }
    Table_master
    {
        Cmu             0.09;
        kappa           0.41;
        E               9.8;
        type            epsilonWallFunction;
        value           nonuniform List<scalar> 9(0.000191586 0.000131821 9.41332e-05 6.9644e-05 5.3196e-05 4.17953e-05 3.36833e-05 2.78109e-05 2.35745e-05);
    }
    Table_slave
    {
        Cmu             0.09;
        kappa           0.41;
        E               9.8;
        type            epsilonWallFunction;
        value           nonuniform List<scalar> 9(0.000271619 0.000204348 0.000164178 0.000137575 0.000117343 0.000100431 8.58176e-05 7.20917e-05 5.80953e-05);
    }
    inlet
    {
        type            turbulentMixingLengthDissipationRateInlet;
        mixingLength    0.01;
        phi             phi;
        k               k;
        value           uniform 0.000101881;
    }
    outlet
    {
        type            zeroGradient;
    }
}


// ************************************************************************* //
