/*--------------------------------*- C++ -*----------------------------------*=========                 |
  \      /  F ield         | OpenFOAM: The Open Source CFD Toolbox
   \    /   O peration     | Website:  https://openfoam.org
    \  /    A nd           | Version:  6
     \/     M anipulation  |
\*---------------------------------------------------------------------------*/
FoamFile
{
    version     2.0;
    format      ascii;
    class       volScalarField;
    location    "1400";
    object      PPD;
}
// * * * * * * * * * * * * * * * * * * * * * * * * * * * * * * * * * * * * * //

dimensions      [0 0 0 0 0 0 0];

internalField   nonuniform List<scalar> 
459
(
60.00911004609192
48.349130736788744
47.01378984676762
45.790678415804216
44.9804643244587
44.47308993223776
44.26623736164168
44.41167912631916
44.83827442649788
45.608015123551326
46.77588557686295
48.46228319367757
50.711865468700026
53.34861414071901
53.67781035777603
56.69449994668946
56.04503821865398
55.811092392044955
55.889081542239296
55.96706358149585
56.07102806911643
56.17497870686375
55.97280695868108
55.916439770563514
55.952569333706144
55.99096497177553
56.07710127584332
56.16591975327783
56.30168141177025
56.538095742370906
56.98005032594938
57.057902177215134
57.18762957916357
57.78392598539711
58.037818999371915
49.495077306674524
49.10063147385901
48.00252477221428
47.330245426891985
46.95200096551609
46.789931415138405
46.86974008524402
47.09263462372735
47.472640795991914
48.123368269759
49.210670011530006
50.79255017456223
52.725046485537845
53.15737562765742
53.07931972276659
52.81915842942396
54.34614259933257
55.655093922745024
55.44705754868418
55.52507603791147
55.265859124795426
55.02975537464965
54.92861585413788
54.920440325983414
54.933105221889015
54.92765027630858
54.91434679968295
54.90488976347769
54.90311016315663
54.93670772541394
55.0221556465471
55.38711279229827
56.04503821865398
56.25293218052122
55.57629643481886
60.41324816618572
49.64318290606278
51.006434580655444
50.470172186894146
50.34106968065541
50.31348094740539
50.3814028701073
50.47663961061388
50.32600334263825
50.02848701987939
49.784840504613236
49.91840560052509
50.63841813933784
51.98646669652117
53.07931972276659
53.131356649249014
53.131356649249014
49.947448936188835
52.424183573371344
53.213223926525785
53.6852041952797
54.14075180024389
54.43938485077214
54.58002537254914
54.92958486909941
55.12743746291809
55.18491590687858
55.20194789956323
55.16709821970508
55.103495119398794
54.99520668203182
54.711240675761836
54.77710704065316
55.72963147160779
55.080726302805616
52.25366284664172
64.49600534961469
49.941277593994485
52.4881623155652
52.980269918088744
53.88274138850227
54.728014309112915
55.398576734187
55.4400867906219
54.40213490495894
52.6449534304882
50.95299750146833
49.86101247904149
49.664396979930714
50.456957334340004
51.99471087333832
53.20941456219032
53.0229257870907
50.831831505318306
50.45365433807637
51.888109202252636
53.24538034428099
54.25589077831132
55.098476677067175
55.636278995616365
55.7741451294658
55.66327148562877
55.56613758292027
55.53339789158094
55.554535308484525
55.65018730934391
55.9337213689454
56.515686456067016
57.684935698323386
57.308244583129266
56.53017253172606
53.978785369716206
49.75331236685598
69.16489673908522
51.040000150746636
53.93618028835723
55.36251487218612
57.789388069897264
60.49395098396286
62.25852965811534
60.80140355489623
57.31682347711487
53.64422823396324
50.7249413680431
48.90906770482161
48.33002240907809
48.850318921200746
50.16307711093949
51.66368399790013
52.33372087917045
52.27527349575227
52.61231415772287
53.89418101803358
55.42880467596917
56.74825097858563
57.70619280275972
58.120601552497966
58.48284894038426
58.79305527140754
58.94050259189538
58.83985954621001
58.69816724198369
58.543249018500056
58.46897224526466
58.46540849458434
58.52021423067534
57.767891402814286
56.36737642623153
52.99363466698964
52.60246487680642
59.46415272329215
58.6067745891653
49.70193951163691
73.55866052996105
53.382617110998055
56.79038125511271
58.17916124737147
61.6079262556283
63.14771952441198
64.23226062877052
60.13673423833256
56.1239777813634
52.27672151325659
49.171721281733824
47.31847612388858
46.83429204350381
47.59517673680838
49.287554407326965
51.37237243192566
53.17126643053346
54.48759723656026
55.804873086492236
57.057902177215134
57.835740219023066
58.50871004259848
59.05134065516906
59.46415272329215
59.799132910352405
60.08225762369551
60.28797337963963
60.41646030241471
60.467836290432246
60.41646030241471
60.21084946628742
59.927863314860424
59.54149106759975
58.256944625489126
56.440045603853775
52.95364755594015
52.891575131569944
53.51479798237015
53.359132942518094
53.97918915122683
77.6600844883264
58.55083517811172
64.87223269327524
63.28284825506162
63.07022017526951
62.31918701580206
60.050078939940256
56.633053701026775
52.63763351700566
48.881415355010915
46.182707823347194
44.976535460290826
45.34133793482663
47.037504556707354
49.66479765571559
52.81301280013848
55.39504216910626
56.59062893220964
57.680278630154746
58.61213547933593
59.38679376846957
59.97933814715235
60.44214964884175
60.77586104156864
61.05785742560947
61.26272107739171
61.39066196950687
61.46738929459953
61.44181664581582
61.28831540670781
61.00661162950527
60.59622854402049
60.13370209330026
59.54149106759975
57.49086830429245
54.259185110789254
52.991392963609
52.26843213502158
50.829516868179596
55.57851968250664
83.1217860030064
74.82698873648589
72.75218270210605
67.7039000067682
65.0131174249102
61.44176849968779
56.54223741120478
51.1542190927015
46.36618596074968
43.09714867076194
41.73785664580637
42.29432336784446
44.54593879979047
48.03389395373123
52.378266012434885
55.34302444708488
57.03195282259771
58.456985962770524
59.51571392774937
60.313676086577495
60.904084787677604
61.365079963751384
61.697400494056616
61.92714936321445
62.10565649226759
62.20758573068821
62.25852965811534
62.25852965811534
62.182108577757084
62.003672654472105
61.74847874788216
61.33949486077464
60.87844579712794
60.36507353870092
59.773379489849425
59.20621104422537
57.929941550016814
57.190765263343216
53.88148809551946
49.31327792283326
89.70127381047486
85.44797176138249
78.87508399454924
70.73436341675354
61.93474954738316
51.47224238793815
42.46656365749099
36.55632454147523
33.96567858201897
34.288986367934584
36.966668866490785
41.49388219389677
47.26154423152426
52.63707262318405
55.29100446855295
57.78392598539711
59.361002921026014
60.44214964884175
61.23712369440599
61.79954396012301
62.20758573068821
62.46901601474406
62.40647339750615
62.335260324489965
62.203396616999974
62.00677546958804
61.74979823313384
61.421799937675644
60.98741803696676
60.47713191474868
59.90872342735413
59.242646429383
58.668383083871284
57.983099377593724
57.19594696514564
56.490884887741515
55.93175397945552
55.55131151806678
54.84408338921066
53.26943937538348
98.92513094288181
61.72106236800901
28.90820923005235
7.965857643814672
5.456615118021119
11.66312018346865
22.23896815704795
34.45144140557335
42.85913927920782
49.41921097592296
54.016123602016876
56.92814285174704
58.97206676904103
59.70164903822326
60.320113033271255
60.72893955114848
61.00222690454578
61.12492124645263
61.142800850986674
61.117903333729366
61.02068609519631
60.88914067702294
60.71152243701665
60.50554275650736
60.21802593472168
59.93439330853943
59.64387073707089
59.39429463737168
59.18010735182459
59.03767105853884
58.957690980117285
58.91122216039032
58.89341920120915
58.96754298820823
59.44397076939848
61.09152575379752
66.99786594876171
58.60437994604075
91.96676806308245
25.071331115307146
5.02822644716025
11.273392455590894
21.1888519735418
29.809187178750832
37.10958833745334
43.20581654923631
48.11447457895802
51.89069937960707
54.56804947353764
56.42196800424917
57.69991270259364
58.64198797388671
59.26561199009305
59.67900525676132
59.93602246749325
60.09851668804387
60.18499304278076
60.270991180794056
60.29022370089078
60.26694798016322
60.25297952172485
60.195308532716595
60.12214161813749
60.06576060269945
59.98510970140577
59.95702409266932
59.9844045678146
60.14209950592367
60.5058344691525
61.07080548149023
61.736606204187524
62.342584698885204
63.099031408346235
66.30639599814677
60.79158427452161
65.51466341861035
21.88852392773923
27.57506365324103
22.58049983233971
7.20902702353483
20.0067327363993
28.933753182658492
35.34006697020307
40.653586842636656
45.14942169007306
48.88559186542279
51.9626547121851
54.38271942466001
56.15742354141546
57.354900618708136
58.13076650735923
58.58025794828729
58.76674784842503
58.82337770567726
58.794052155453485
58.764362178633284
58.75174375025811
58.725603985600834
58.751370637802474
58.77399410271829
58.792811976124774
58.86342514738518
58.96353491327137
59.1043314441949
59.30540480554875
59.568474136752286
59.992146838529855
60.5987797055159
61.668883191617134
63.52312471087268
65.18666989339283
65.43635813953456
65.68556359787614
61.57231671636193
61.72117532538339
56.45320759816133
)
;

boundaryField
{
    ".*"
    {
        type            zeroGradient;
    }
}


// ************************************************************************* //
