/*--------------------------------*- C++ -*----------------------------------*\
  =========                 |
  \\      /  F ield         | OpenFOAM: The Open Source CFD Toolbox
   \\    /   O peration     | Website:  https://openfoam.org
    \\  /    A nd           | Version:  6
     \\/     M anipulation  |
\*---------------------------------------------------------------------------*/
FoamFile
{
    version     2.0;
    format      ascii;
    class       surfaceScalarField;
    location    "2200";
    object      phi;
}
// * * * * * * * * * * * * * * * * * * * * * * * * * * * * * * * * * * * * * //

dimensions      [1 0 -1 0 0 0 0];

internalField   nonuniform List<scalar> 
852
(
-0.00304101
0.00310081
-0.00412287
0.00108186
-0.00492625
0.000803378
-0.00553918
0.000612929
-0.00592997
0.000390784
-0.0060749
0.000144934
-0.00595305
-0.000121845
-0.00555411
-0.000398948
-0.00490432
-0.000649782
-0.00406901
-0.000835315
-0.00313877
-0.000930239
-0.00220961
-0.000929165
-0.00136627
-0.000843331
-0.000647435
-0.000718839
-0.000645373
-0.000809445
0.000813152
-0.000477743
-0.000331702
0.000188687
-0.00066643
0.000718186
-0.000529499
0.00107251
-0.000354327
0.00129441
-0.000221901
0.00141546
-0.000121047
0.00147509
-5.96297e-05
0.00150855
-3.34554e-05
0.00152905
-2.05004e-05
0.00154064
-1.1594e-05
0.00154479
-4.15387e-06
0.00153982
4.97594e-06
0.00151747
2.23506e-05
0.00145526
6.221e-05
0.00131545
0.000139805
0.00108594
0.000229508
0.000803365
0.00028258
0.0008084
-0.00216456
0.00542603
-0.00321025
0.00212754
-0.00403176
0.00162489
-0.00463329
0.00121446
-0.00501673
0.000774224
-0.00516699
0.000295192
-0.00506055
-0.000228288
-0.00469356
-0.000765939
-0.00410448
-0.00123886
-0.00336508
-0.00157472
-0.00256186
-0.00173346
-0.00177493
-0.00171609
-0.00107568
-0.00154258
-0.00054064
-0.00125388
-0.000313136
-0.000872877
4.91109e-05
-0.000362298
4.90594e-05
0.000370685
0.000453133
0.000799999
-0.000761015
0.00106371
-0.000930138
0.00129099
-0.000756783
0.00146488
-0.000528212
0.00156928
-0.000326302
0.00158618
-0.00013795
0.00159038
-6.38252e-05
0.00159549
-3.85698e-05
0.00159975
-2.47574e-05
0.00160253
-1.43734e-05
0.00160388
-5.51148e-06
0.001603
5.85643e-06
0.00159628
2.9075e-05
0.0015543
0.000104189
0.00137454
0.000319561
0.00106607
0.000537979
0.000684706
0.000663946
0.00150585
-0.00151043
0.0071819
-0.00240868
0.0030258
-0.00313215
0.00234836
-0.00364193
0.00172423
-0.00396933
0.00110163
-0.00409342
0.000419274
-0.00397059
-0.000351115
-0.00360041
-0.00113612
-0.00304506
-0.0017942
-0.00238525
-0.00223453
-0.00170064
-0.00241807
-0.00104873
-0.002368
-0.000476683
-0.00211463
-2.08217e-05
-0.00170974
0.000280988
-0.00117469
0.000436256
-0.000517566
0.000485315
0.0016007
-0.0011362
0.00182834
-0.000988656
0.00177969
-0.000881482
0.00176426
-0.000741359
0.00178275
-0.000546697
0.00180133
-0.00034488
0.00166353
0.00159986
0.00156144
0.00153684
0.00152262
0.00151726
0.00152327
0.0015525
0.00165684
0.00135874
0.000617667
0.0010021
0.000894619
0.000571711
0.00109433
0.00209678
-0.00104994
0.00854946
-0.00175813
0.00373399
-0.002229
0.00281924
-0.00255268
0.00204791
-0.00274983
0.00129877
-0.002779
0.000448442
-0.00257549
-0.000554618
-0.00217078
-0.00154083
-0.00165762
-0.00230737
-0.00111204
-0.00278011
-0.000591634
-0.00293848
-0.000121241
-0.00283839
0.000285401
-0.00252127
0.000626897
-0.00205124
0.000938428
-0.00148622
0.00130761
-0.000886748
0.00216305
-0.000370126
0.00261091
-0.000437616
0.00218591
-0.000711202
0.00204155
-0.000844296
0.00191508
-0.000755007
0.00180457
-0.000630855
0.00174075
-0.000482876
0.00170651
-0.000310641
0.00183393
-0.000127569
0.00191143
-7.76548e-05
0.00197178
-6.05018e-05
0.00201541
-4.37856e-05
0.00202721
-1.1952e-05
0.00198579
4.12639e-05
0.00186673
0.000118905
0.00163785
0.000228731
0.00124404
0.000393658
0.00110044
0.000761267
0.000785606
0.00120945
0.000301772
0.00157817
0.00242366
-0.00073207
0.00966049
-0.00126613
0.00426805
-0.00134921
0.00290232
-0.00138441
0.00208312
-0.00136489
0.00127925
-0.00118175
0.000265303
-0.000813471
-0.000922895
-0.000375921
-0.00197838
4.3211e-05
-0.0027265
0.000398928
-0.00313582
0.000680699
-0.00322025
0.000894046
-0.00305174
0.00106117
-0.00268839
0.00120704
-0.00219711
0.00136453
-0.00164371
0.00158032
-0.00110253
0.00189444
-0.000684248
0.00201063
-0.000553803
0.00191052
-0.000611094
0.00171822
-0.000651998
0.00155385
-0.000590638
0.00141723
-0.00049424
0.00132098
-0.00038662
0.00127991
-0.000269576
0.00132111
-0.000168768
0.00137016
-0.000126706
0.00142369
-0.000114029
0.00147767
-9.77658e-05
0.00152038
-5.46574e-05
0.00153141
3.02309e-05
0.00149043
0.000159883
0.00138574
0.000333424
0.00121896
0.000560434
0.00107053
0.000909699
0.000905427
0.00137455
0.000507466
0.00197613
0.000379059
0.00255207
-0.00111793
0.00149678
-0.00157813
0.00046
-0.0015241
-0.000635097
0.0107263
-0.000993678
0.00462663
-0.000534034
0.00244267
-9.83823e-05
0.00164746
0.000293318
0.000887547
0.000805395
-0.000246774
0.00133086
-0.00144836
0.00171454
-0.00236206
0.00193481
-0.00294676
0.00201278
-0.0032138
0.00198985
-0.00319731
0.00189545
-0.00295735
0.00176711
-0.00256005
0.00164175
-0.00207175
0.00155039
-0.00155235
0.00151447
-0.00106661
0.00152379
-0.000693564
0.00147653
-0.000506548
0.00133198
-0.000466543
0.00113338
-0.000453399
0.000955195
-0.000412451
0.000816165
-0.000355211
0.000723899
-0.000294354
0.000688226
-0.000233903
0.000708541
-0.000189082
0.000758526
-0.000176691
0.000825445
-0.000180948
0.000903909
-0.00017623
0.000987966
-0.000138714
0.00106306
-4.48617e-05
0.00111078
0.000112161
0.00112946
0.000314746
0.00112731
0.000562582
0.00115323
0.000883781
0.00126142
0.00126636
0.00145584
0.0017817
0.00195723
0.00205068
0.0022374
0.00121661
0.00185494
0.000842462
0.00039556
-0.000661876
0.0118662
-0.000513918
0.00447867
0.000719669
0.00120909
0.00164495
0.000722186
0.00250337
2.91207e-05
0.00329574
-0.00103914
0.00378055
-0.00193317
0.00395706
-0.00253858
0.00387143
-0.00286113
0.00358798
-0.00293035
0.00317815
-0.00278748
0.00270538
-0.00248458
0.00222723
-0.0020819
0.00179082
-0.00163534
0.0014252
-0.00118673
0.00114358
-0.000784998
0.00093779
-0.000487772
0.000759836
-0.000328594
0.000572151
-0.000278857
0.000385676
-0.000266923
0.000227629
-0.000254404
0.000110388
-0.00023797
3.79139e-05
-0.00022188
1.34492e-05
-0.000209438
3.24556e-05
-0.000208089
7.92965e-05
-0.000223532
0.000143492
-0.000245144
0.000223785
-0.000256523
0.000324818
-0.000239747
0.000452303
-0.000172346
0.000590494
-2.60311e-05
0.000728097
0.000177143
0.000879557
0.000411122
0.00108519
0.000678145
0.00140103
0.000950527
0.00190163
0.0012811
0.00265148
0.00130083
0.00323284
0.000635253
0.00330221
0.000773086
0.00376764
0.00277158
0.00962988
0.00355299
0.00369726
0.00417933
0.000582747
0.00518954
-0.000288023
0.00611596
-0.000897292
0.00657529
-0.00149847
0.00659155
-0.00194944
0.0062373
-0.00218432
0.00560236
-0.00222619
0.00478669
-0.00211468
0.00388895
-0.00188975
0.00299147
-0.0015871
0.00216068
-0.00125111
0.00144328
-0.000917938
0.000858516
-0.000601963
0.000415068
-0.00034155
0.000105007
-0.000177711
-0.000113928
-0.00010966
-0.000286961
-0.000105824
-0.000431183
-0.000122702
-0.000546141
-0.000139446
-0.000630465
-0.000153646
-0.000684592
-0.000167752
-0.000709723
-0.000184308
-0.000711132
-0.00020668
-0.000699019
-0.000235645
-0.000679391
-0.000264772
-0.000650996
-0.000284917
-0.000604559
-0.000286185
-0.000520062
-0.000256843
-0.000365706
-0.000180387
-0.000158975
-2.95877e-05
8.20392e-05
0.000170108
0.000380251
0.000379933
0.000748006
0.000582772
0.00124337
0.000785737
0.00176269
0.00078151
0.00185392
0.000544025
0.000828497
0.00179851
0.00489201
0.0102229
0.0139163
0.012981
0.00151804
0.0123591
0.000333804
0.0116026
-0.000140773
0.0105589
-0.000454765
0.00924732
-0.000637843
0.00778049
-0.000717499
0.00625997
-0.000705666
0.0047731
-0.000627815
0.00339854
-0.000515186
0.00218552
-0.000374079
0.00116692
-0.000232511
0.000350638
-0.000101653
-0.000255102
3.77759e-06
-0.0006479
5.12477e-05
-0.000877868
5.22569e-05
-0.00102115
3.36236e-05
-0.00113093
3.95761e-06
-0.00122581
-2.78288e-05
-0.00130744
-5.78132e-05
-0.00137667
-8.44108e-05
-0.00143511
-0.000109316
-0.00148618
-0.00013324
-0.00153604
-0.00015682
-0.00159322
-0.000178465
-0.00166542
-0.000192571
-0.0017598
-0.000190537
-0.00188467
-0.00016131
-0.00205071
-9.08066e-05
-0.00226536
3.42643e-05
-0.00251599
0.000221038
-0.00283197
0.000486086
-0.00330011
0.000848076
-0.00402191
0.00130457
-0.00506016
0.00182399
-0.00653426
0.00225561
-0.00836006
0.00236982
-0.00804599
0.00148444
-0.00282714
0.00437539
0.0033788
0.00335888
0.00135031
0.0036503
-0.000432189
0.00358756
-0.000392024
0.00312866
-0.000178941
0.00244186
-3.06992e-05
0.00163938
9.68107e-05
0.00081469
0.000196873
4.33245e-05
0.00025618
-0.000604152
0.000273398
-0.00108878
0.000252113
-0.00141696
0.000226533
-0.00160849
0.000195304
-0.00171298
0.000155742
-0.00177748
0.000116752
-0.00182676
8.29029e-05
-0.00187571
5.29133e-05
-0.00193045
2.69079e-05
-0.00199152
3.25553e-06
-0.00205623
-1.97027e-05
-0.00212364
-4.19056e-05
-0.00219676
-6.01202e-05
-0.00227948
-7.40923e-05
-0.00237525
-8.27043e-05
-0.00248503
-8.27892e-05
-0.00260638
-6.91809e-05
-0.00273197
-3.57256e-05
-0.00284885
2.60804e-05
-0.0029483
0.000133709
-0.00303252
0.000305261
-0.00310838
0.000561943
-0.00318133
0.000921032
-0.00324963
0.00137287
-0.00325665
0.00183101
-0.0030959
0.00209486
-0.00211591
0.00138983
-0.00020523
-0.000426244
-0.002948
-0.000788876
0.00425214
-0.000343161
0.000904598
-0.00102148
0.000246133
-0.00154196
0.000128456
-0.00189552
0.000174618
-0.00215839
0.000232164
-0.00234478
0.000283206
-0.00247327
0.00032536
-0.00255586
0.000338769
-0.00259836
0.000315901
-0.00261314
0.000266891
-0.00259975
0.000213149
-0.00256661
0.00016216
-0.00252829
0.000117423
-0.00249426
8.27271e-05
-0.0024687
5.73422e-05
-0.00245402
3.82281e-05
-0.00244995
2.2839e-05
-0.00245605
9.35228e-06
-0.00247035
-5.40278e-06
-0.00249351
-1.8742e-05
-0.00252518
-2.84501e-05
-0.00256501
-3.42577e-05
-0.00261203
-3.56892e-05
-0.00266363
-3.11906e-05
-0.00271485
-1.79601e-05
-0.00275818
7.60246e-06
-0.00278024
4.81452e-05
-0.00276017
0.000113637
-0.00267385
0.000218943
-0.0024897
0.000377794
-0.00217999
0.000611319
-0.00173906
0.000931931
-0.00113441
0.00122636
-2.9942e-05
0.000990394
0.00183675
-0.000476857
0.00346857
-0.00205807
0.000612113
-0.00788014
-0.0111392
-0.00683179
-0.00589906
-0.00563374
-0.00548986
-0.00530217
-0.00505859
-0.00476511
-0.00443022
-0.00408234
-0.00375744
-0.00348141
-0.00325888
-0.00308708
-0.00295976
-0.00286689
-0.00279921
-0.00275046
-0.00271697
-0.00269689
-0.00269154
-0.00269957
-0.00271738
-0.00274112
-0.00276646
-0.00278748
-0.00279551
-0.00277823
-0.0027207
-0.00259801
-0.00237036
-0.00198425
-0.00136501
-0.000425596
0.000807721
0.0018048
0.00133492
-0.000717017
)
;

boundaryField
{
    floor
    {
        type            calculated;
        value           nonuniform List<scalar> 
29
(
0
0
0
0
0
0
0
0
0
0
0
0
0
0
0
0
0
0
0
0
-5.03564e-06
-1.27478e-05
-1.92153e-05
-2.51057e-05
-2.06195e-06
-3.70713e-06
-1.06664e-05
-1.13675e-05
-1.02434e-05
)
;
    }
    ceiling
    {
        type            calculated;
        value           nonuniform List<scalar> 
43
(
-5.92986e-05
-5.7071e-05
-5.52844e-05
-2.81327e-05
-1.91869e-05
-1.54171e-05
-1.30728e-05
-1.14219e-05
-1.0276e-05
-9.52235e-06
-9.11033e-06
-9.00722e-06
-9.13607e-06
-9.37672e-06
-9.64352e-06
-9.89956e-06
-1.01347e-05
-1.03446e-05
-1.05208e-05
-1.06522e-05
-1.073e-05
-1.07499e-05
-1.0715e-05
-1.06355e-05
-1.0515e-05
-1.03569e-05
-1.01636e-05
-9.93662e-06
-9.67562e-06
-9.37974e-06
-9.05495e-06
-8.7023e-06
-8.3231e-06
-7.91732e-06
-7.48397e-06
-6.95621e-06
-6.68072e-06
-6.97989e-06
-6.13096e-06
-3.81411e-06
6.31298e-06
3.88615e-06
-8.44583e-05
)
;
    }
    sWall
    {
        type            calculated;
        value           uniform -0.000279569;
    }
    nWall
    {
        type            calculated;
        value           nonuniform List<scalar> 6(-5.42357e-05 -6.47241e-05 -6.98713e-05 -8.43657e-05 -9.15425e-05 -0.00010109);
    }
    sideWalls
    {
        type            empty;
        value           nonuniform 0();
    }
    glass1
    {
        type            calculated;
        value           nonuniform List<scalar> 9(-5.97989e-05 -0.000160653 -0.00024544 -0.00031763 -0.000378958 -0.000430721 -0.000477988 -0.000535282 -0.000599314);
    }
    glass2
    {
        type            calculated;
        value           nonuniform List<scalar> 2(-0.00029587 -0.000326839);
    }
    sun
    {
        type            calculated;
        value           uniform 0;
    }
    heatsource1
    {
        type            calculated;
        value           nonuniform List<scalar> 3(2.05041e-07 2.04926e-07 2.04945e-07);
    }
    heatsource2
    {
        type            calculated;
        value           nonuniform List<scalar> 4(5.14191e-08 5.15273e-08 0 0);
    }
    Table_master
    {
        type            calculated;
        value           nonuniform List<scalar> 9(-1.53793e-07 -1.53885e-07 -1.53917e-07 -1.53939e-07 -1.53954e-07 -1.53965e-07 -1.53969e-07 -1.53963e-07 -1.53931e-07);
    }
    Table_slave
    {
        type            calculated;
        value           nonuniform List<scalar> 9(1.53657e-07 1.53683e-07 1.53664e-07 1.53649e-07 1.53645e-07 1.53649e-07 1.53668e-07 1.53715e-07 1.53802e-07);
    }
    inlet
    {
        type            calculated;
        value           uniform -0.00623615;
    }
    outlet
    {
        type            calculated;
        value           nonuniform List<scalar> 2(0.00821901 0.00331614);
    }
}


// ************************************************************************* //
