// -*- C++ -*-
// File generated by PyFoam - sorry for the ugliness

FoamFile
{
 version 2.0;
 format ascii;
 class volVectorField;
 location "1500";
 object U;
}

dimensions [ 0 1 -1 0 0 0 0 ];

internalField nonuniform List<vector> 459
(
  (0.0338644 0.0880411 0)
  (-0.171259 0.0263059 0)
  (-0.196136 0.0178373 0)
  (-0.226792 0.0119738 0)
  (-0.248525 0.0055472 0)
  (-0.260402 -0.00117706 0)
  (-0.26101 -0.00821253 0)
  (-0.24959 -0.0155304 0)
  (-0.227023 -0.0224479 0)
  (-0.195212 -0.0278894 0)
  (-0.157483 -0.0310195 0)
  (-0.117507 -0.031559 0)
  (-0.0787732 -0.0299028 0)
  (-0.0463569 -0.0275525 0)
  (-0.0353685 -0.0263169 0)
  (-0.00187924 0.00843824 0)
  (-0.0270487 -0.0197816 0)
  (-0.00110117 -0.0294829 0)
  (0.0228223 -0.02182 0)
  (0.0401255 -0.0146687 0)
  (0.0530593 -0.00936589 0)
  (0.0607516 -0.00557671 0)
  (0.0645651 -0.00359514 0)
  (0.0662452 -0.00274163 0)
  (0.0670841 -0.00232946 0)
  (0.0675952 -0.00206095 0)
  (0.0678459 -0.0018415 0)
  (0.0677692 -0.00157639 0)
  (0.0671482 -0.00108798 0)
  (0.0653936 2.0345e-05 0)
  (0.0612549 0.00229865 0)
  (0.0533869 0.00466026 0)
  (0.0463852 0.00651292 0)
  (-0.0148471 0.0228165 0)
  (0.21046 0.179909 0)
  (-0.158585 0.0692306 0)
  (-0.156838 0.0527432 0)
  (-0.188192 0.0403769 0)
  (-0.209481 0.0265112 0)
  (-0.221412 0.0112124 0)
  (-0.222538 -0.00563726 0)
  (-0.212058 -0.0232371 0)
  (-0.191413 -0.0392338 0)
  (-0.162825 -0.0512232 0)
  (-0.129689 -0.0575861 0)
  (-0.095419 -0.0580169 0)
  (-0.0631631 -0.053129 0)
  (-0.0364369 -0.0444761 0)
  (-0.0196279 -0.0338353 0)
  (-0.00583911 -0.0156922 0)
  (-0.0054281 0.0174242 0)
  (0.0739287 0.035584 0)
  (0.0325332 -0.0206827 0)
  (0.0398519 -0.0336684 0)
  (0.0518139 -0.0288802 0)
  (0.0611392 -0.0200177 0)
  (0.0674074 -0.0118307 0)
  (0.0699574 -0.00485487 0)
  (0.0703288 -0.000995393 0)
  (0.0702123 0.000626478 0)
  (0.0702848 0.00135578 0)
  (0.0704564 0.00180009 0)
  (0.0705784 0.00217493 0)
  (0.0706003 0.00265612 0)
  (0.0704697 0.00360776 0)
  (0.0696209 0.00598555 0)
  (0.0654675 0.0126084 0)
  (0.055036 0.0180577 0)
  (0.0505491 0.0215409 0)
  (-0.0560337 0.0492212 0)
  (0.371812 0.268723 0)
  (-0.173915 0.10976 0)
  (-0.117262 0.0848746 0)
  (-0.147093 0.0629844 0)
  (-0.165628 0.0402632 0)
  (-0.176175 0.0155585 0)
  (-0.176327 -0.0116148 0)
  (-0.165007 -0.0394863 0)
  (-0.144808 -0.0638928 0)
  (-0.118547 -0.0811982 0)
  (-0.0897254 -0.0893742 0)
  (-0.0610365 -0.088656 0)
  (-0.0345868 -0.080139 0)
  (-0.0124796 -0.0655595 0)
  (0.00399557 -0.0456097 0)
  (0.0156499 -0.0200232 0)
  (0.0221142 0.0163962 0)
  (0.120272 -0.0392656 0)
  (0.0788497 -0.0454302 0)
  (0.0731754 -0.0425421 0)
  (0.0753332 -0.0346701 0)
  (0.076968 -0.025012 0)
  (0.0780083 -0.0167157 0)
  (0.0763906 -0.0133275 0)
  (0.0719678 -0.00935088 0)
  (0.0689025 -0.00719081 0)
  (0.067568 -0.00595387 0)
  (0.0670328 -0.00516258 0)
  (0.0668007 -0.00460736 0)
  (0.0668976 -0.00407868 0)
  (0.0678185 -0.00319963 0)
  (0.070836 0.000100842 0)
  (0.0684836 0.0181864 0)
  (0.0537674 0.0306721 0)
  (0.0573175 0.0386808 0)
  (-0.0927362 0.0762751 0)
  (0.516648 0.339926 0)
  (-0.207073 0.145586 0)
  (-0.0762152 0.111832 0)
  (-0.103476 0.0817108 0)
  (-0.1162 0.0523123 0)
  (-0.122462 0.0196612 0)
  (-0.118055 -0.0176819 0)
  (-0.103584 -0.0558322 0)
  (-0.0834192 -0.0873906 0)
  (-0.0605181 -0.108291 0)
  (-0.0380143 -0.116818 0)
  (-0.0170581 -0.114464 0)
  (0.00182858 -0.102609 0)
  (0.0176985 -0.0837417 0)
  (0.0313157 -0.0602618 0)
  (0.046145 -0.0333105 0)
  (0.0689077 -0.00386155 0)
  (0.101292 0.0111713 0)
  (0.107647 -0.0304328 0)
  (0.0920704 -0.0392933 0)
  (0.0828598 -0.03623 0)
  (0.0785233 -0.0303514 0)
  (0.0756809 -0.0228491 0)
  (0.0743707 -0.0137917 0)
  (0.0766064 -0.00822922 0)
  (0.0817669 -0.00640652 0)
  (0.0860603 -0.00534003 0)
  (0.0889567 -0.00447664 0)
  (0.0906429 -0.00339746 0)
  (0.0904537 -0.00184146 0)
  (0.0872978 0.000393445 0)
  (0.0799306 0.00359958 0)
  (0.0653545 0.00837654 0)
  (0.0530263 0.0297921 0)
  (0.0402928 0.0472067 0)
  (0.0608866 0.0601963 0)
  (-0.135863 0.0994654 0)
  (0.640677 0.394976 0)
  (-0.247687 0.174797 0)
  (-0.036634 0.12672 0)
  (-0.0579289 0.0917329 0)
  (-0.0620491 0.0583376 0)
  (-0.0601239 0.0194451 0)
  (-0.044369 -0.0276621 0)
  (-0.0254476 -0.0735204 0)
  (-0.00699997 -0.108096 0)
  (0.00968115 -0.128942 0)
  (0.022451 -0.134889 0)
  (0.0326067 -0.129698 0)
  (0.0404467 -0.115738 0)
  (0.0468276 -0.0955841 0)
  (0.0529355 -0.071889 0)
  (0.0606743 -0.0476879 0)
  (0.0727603 -0.028852 0)
  (0.0835751 -0.0268401 0)
  (0.0847374 -0.0350652 0)
  (0.0777073 -0.034977 0)
  (0.0691827 -0.0306172 0)
  (0.062726 -0.0253882 0)
  (0.0582635 -0.0196632 0)
  (0.0560565 -0.0134681 0)
  (0.0566114 -0.00777698 0)
  (0.0595125 -0.00508661 0)
  (0.0626494 -0.00398881 0)
  (0.0655755 -0.00293133 0)
  (0.0681147 -0.000897754 0)
  (0.0697815 0.00259882 0)
  (0.0693115 0.00756983 0)
  (0.0661851 0.0141386 0)
  (0.0597258 0.0230249 0)
  (0.0520132 0.0394681 0)
  (0.0403498 0.0590571 0)
  (0.0684663 0.0803549 0)
  (-0.0352119 0.112029 0)
  (0.0473744 0.0266288 0)
  (-0.0691028 -0.0378141 0)
  (-0.286078 -0.0613903 0)
  (0.729732 0.440672 0)
  (-0.286872 0.194086 0)
  (-0.0070165 0.120959 0)
  (-0.00994221 0.0896766 0)
  (-0.00116196 0.0554299 0)
  (0.017138 0.00801357 0)
  (0.0472085 -0.0470441 0)
  (0.067006 -0.0913652 0)
  (0.079549 -0.121597 0)
  (0.0854358 -0.137553 0)
  (0.0859177 -0.140384 0)
  (0.0828021 -0.132613 0)
  (0.0775487 -0.117003 0)
  (0.07171 -0.096416 0)
  (0.0667355 -0.0736095 0)
  (0.0639016 -0.051546 0)
  (0.0639761 -0.0342592 0)
  (0.0640179 -0.0267349 0)
  (0.0601107 -0.0261719 0)
  (0.0523864 -0.0254966 0)
  (0.043956 -0.022895 0)
  (0.037235 -0.0195154 0)
  (0.0327021 -0.0158864 0)
  (0.0305892 -0.0121463 0)
  (0.030941 -0.00907422 0)
  (0.0332422 -0.00794866 0)
  (0.0364131 -0.00768667 0)
  (0.0400193 -0.00695258 0)
  (0.0438271 -0.00469687 0)
  (0.0476178 -7.35862e-05 0)
  (0.0505466 0.00691765 0)
  (0.0517686 0.0158307 0)
  (0.0516492 0.0269702 0)
  (0.0517758 0.0422728 0)
  (0.0493469 0.0613561 0)
  (0.076647 0.0860554 0)
  (0.0488035 0.10495 0)
  (0.0975093 0.0695814 0)
  (0.122226 0.0452575 0)
  (-0.138461 -0.0100388 0)
  (0.786061 0.482476 0)
  (-0.304647 0.178682 0)
  (0.0236542 0.064992 0)
  (0.0570938 0.0556249 0)
  (0.0828863 0.0312839 0)
  (0.125787 -0.0213819 0)
  (0.154573 -0.0698055 0)
  (0.168826 -0.104729 0)
  (0.170382 -0.125775 0)
  (0.161794 -0.134205 0)
  (0.146124 -0.131736 0)
  (0.126455 -0.120757 0)
  (0.105471 -0.103991 0)
  (0.0854111 -0.0840797 0)
  (0.0679045 -0.0632617 0)
  (0.0539515 -0.0438975 0)
  (0.0438305 -0.0289178 0)
  (0.0360197 -0.0207785 0)
  (0.0282852 -0.018113 0)
  (0.0200947 -0.0171341 0)
  (0.0125709 -0.0157996 0)
  (0.00678244 -0.0142287 0)
  (0.00302175 -0.0126895 0)
  (0.00139212 -0.0112929 0)
  (0.00180567 -0.0104888 0)
  (0.0037414 -0.0107171 0)
  (0.00651332 -0.0112461 0)
  (0.00987272 -0.0111167 0)
  (0.013861 -0.00939596 0)
  (0.0186065 -0.00500678 0)
  (0.0253469 0.00295493 0)
  (0.0311209 0.0127822 0)
  (0.0366744 0.0240366 0)
  (0.0439998 0.0376142 0)
  (0.0513472 0.0531885 0)
  (0.0764903 0.0732816 0)
  (0.088755 0.0804265 0)
  (0.125489 0.0521825 0)
  (0.168018 0.0427658 0)
  (-0.0318859 0.0967139 0)
  (0.893881 0.482186 0)
  (-0.0571667 0.157239 0)
  (0.118851 -0.0232634 0)
  (0.205677 -0.0583913 0)
  (0.250378 -0.0707419 0)
  (0.276065 -0.0873563 0)
  (0.285872 -0.103029 0)
  (0.279004 -0.113236 0)
  (0.257513 -0.116751 0)
  (0.225585 -0.113714 0)
  (0.187888 -0.104903 0)
  (0.148545 -0.0915373 0)
  (0.11088 -0.0753981 0)
  (0.0772536 -0.0582721 0)
  (0.0489646 -0.0414426 0)
  (0.0267524 -0.0265334 0)
  (0.010797 -0.015895 0)
  (-0.000372259 -0.0106189 0)
  (-0.00868805 -0.00938966 0)
  (-0.0155602 -0.00954098 0)
  (-0.0212179 -0.00974482 0)
  (-0.025481 -0.00991667 0)
  (-0.0283526 -0.0101701 0)
  (-0.0298853 -0.0106035 0)
  (-0.0302532 -0.0113867 0)
  (-0.0298551 -0.0125533 0)
  (-0.0290794 -0.0137276 0)
  (-0.0280138 -0.0144143 0)
  (-0.0264622 -0.0140987 0)
  (-0.023969 -0.0121698 0)
  (-0.0193662 -0.00783144 0)
  (-0.00870003 -0.000409976 0)
  (-0.000345345 0.00851036 0)
  (0.0109195 0.0171942 0)
  (0.0225299 0.0248885 0)
  (0.0438268 0.0336114 0)
  (0.0623362 0.0257128 0)
  (0.0811263 -0.00564862 0)
  (0.14266 0.0450093 0)
  (-0.45591 0.222277 0)
  (1.04598 0.42692 0)
  (0.495489 0.278781 0)
  (0.514462 0.173338 0)
  (0.549554 0.0962208 0)
  (0.530222 0.0431351 0)
  (0.483214 0.000618257 0)
  (0.428817 -0.0309047 0)
  (0.369197 -0.0504692 0)
  (0.305099 -0.0591756 0)
  (0.23986 -0.0594144 0)
  (0.177537 -0.0538423 0)
  (0.12111 -0.0445093 0)
  (0.0728367 -0.0335336 0)
  (0.0333597 -0.0226194 0)
  (0.00209353 -0.0127099 0)
  (-0.0197062 -0.00571108 0)
  (-0.0322662 -0.00265253 0)
  (-0.040082 -0.00208845 0)
  (-0.0456883 -0.00293894 0)
  (-0.0503745 -0.00426124 0)
  (-0.0544148 -0.00558727 0)
  (-0.0578405 -0.00687794 0)
  (-0.0607299 -0.00816185 0)
  (-0.0632189 -0.00946142 0)
  (-0.0655346 -0.0107903 0)
  (-0.0680107 -0.0120576 0)
  (-0.0709833 -0.0129773 0)
  (-0.0747336 -0.0131352 0)
  (-0.0795757 -0.012008 0)
  (-0.0859931 -0.00892302 0)
  (-0.0946789 -0.00306376 0)
  (-0.105342 0.00610096 0)
  (-0.116255 0.0181227 0)
  (-0.133566 0.033318 0)
  (-0.160968 0.0514772 0)
  (-0.200881 0.0705196 0)
  (-0.257241 0.0851064 0)
  (-0.320646 0.0922628 0)
  (-0.392184 0.0927385 0)
  (-0.660709 0.08707 0)
  (-0.183599 -0.0195368 0)
  (0.101199 -0.0330381 0)
  (0.177811 -0.0533511 0)
  (0.165411 -0.0465062 0)
  (0.14693 -0.0338757 0)
  (0.123531 -0.0223461 0)
  (0.0921553 -0.0124697 0)
  (0.0567868 -0.00473577 0)
  (0.0221214 0.000590797 0)
  (-0.0105255 0.00404456 0)
  (-0.0348108 0.00527903 0)
  (-0.0524242 0.0052464 0)
  (-0.0639726 0.00419581 0)
  (-0.0703671 0.00211149 0)
  (-0.073978 -0.0004659 0)
  (-0.0765536 -0.00313795 0)
  (-0.0788848 -0.00583563 0)
  (-0.0814748 -0.00828833 0)
  (-0.0844157 -0.0101686 0)
  (-0.0874763 -0.0116162 0)
  (-0.0906757 -0.012681 0)
  (-0.0941476 -0.0134106 0)
  (-0.0980596 -0.0138227 0)
  (-0.102571 -0.0138305 0)
  (-0.107761 -0.0131861 0)
  (-0.113562 -0.0114873 0)
  (-0.119712 -0.0082183 0)
  (-0.125722 -0.00281489 0)
  (-0.13085 0.0051087 0)
  (-0.134661 0.01585 0)
  (-0.13767 0.030423 0)
  (-0.140478 0.0492701 0)
  (-0.144233 0.071306 0)
  (-0.14958 0.0918785 0)
  (-0.152992 0.0995286 0)
  (-0.135164 0.0722981 0)
  (-0.081768 -0.0316133 0)
  (-0.289139 -0.225875 0)
  (0.032835 0.199109 0)
  (0.0146556 0.0651219 0)
  (-0.0315242 0.0126737 0)
  (-0.0542048 0.0116017 0)
  (-0.0717391 0.0174088 0)
  (-0.084736 0.0217385 0)
  (-0.0935744 0.025344 0)
  (-0.100409 0.0284381 0)
  (-0.105408 0.0304125 0)
  (-0.108802 0.0309923 0)
  (-0.110426 0.0306245 0)
  (-0.110691 0.0304505 0)
  (-0.109854 0.0307625 0)
  (-0.10844 0.0315999 0)
  (-0.107059 0.0330831 0)
  (-0.106032 0.0350368 0)
  (-0.105514 0.036926 0)
  (-0.105569 0.0381409 0)
  (-0.106093 0.0380465 0)
  (-0.107121 0.0370412 0)
  (-0.108615 0.0356112 0)
  (-0.11055 0.0338963 0)
  (-0.112886 0.0319811 0)
  (-0.115567 0.029953 0)
  (-0.118481 0.0279179 0)
  (-0.121443 0.0259876 0)
  (-0.124156 0.0242469 0)
  (-0.126069 0.0228665 0)
  (-0.126248 0.0233346 0)
  (-0.123353 0.0270111 0)
  (-0.115765 0.035075 0)
  (-0.10233 0.0486225 0)
  (-0.083429 0.0674212 0)
  (-0.0603621 0.086453 0)
  (-0.0362105 0.0972957 0)
  (0.0073196 0.0797126 0)
  (0.144441 0.00346288 0)
  (-0.207591 -0.138753 0)
  (-0.0927003 -0.34734 0)
  (-0.447471 -0.138522 0)
  (-0.333899 0.0449696 0)
  (-0.290614 -0.0449387 0)
  (-0.24946 -0.0519695 0)
  (-0.237807 -0.0447077 0)
  (-0.229687 -0.037714 0)
  (-0.22042 -0.0333078 0)
  (-0.208912 -0.0311082 0)
  (-0.195393 -0.031233 0)
  (-0.180799 -0.0342441 0)
  (-0.166514 -0.0401863 0)
  (-0.153773 -0.0483601 0)
  (-0.143232 -0.0575391 0)
  (-0.135004 -0.0670784 0)
  (-0.128928 -0.0766409 0)
  (-0.124618 -0.0857491 0)
  (-0.121618 -0.0938467 0)
  (-0.119583 -0.100407 0)
  (-0.118343 -0.10494 0)
  (-0.117887 -0.107135 0)
  (-0.118206 -0.107292 0)
  (-0.119169 -0.106025 0)
  (-0.1206 -0.103559 0)
  (-0.12233 -0.100055 0)
  (-0.124174 -0.0955908 0)
  (-0.12588 -0.0901499 0)
  (-0.127094 -0.083597 0)
  (-0.127358 -0.0756461 0)
  (-0.126067 -0.0660192 0)
  (-0.1221 -0.0554163 0)
  (-0.113284 -0.0436623 0)
  (-0.0966413 -0.0302457 0)
  (-0.0700565 -0.0141854 0)
  (-0.035015 0.00525673 0)
  (0.024534 0.0302434 0)
  (0.0750894 0.0309062 0)
  (0.123755 0.00902137 0)
  (0.176952 -0.0320245 0)
  (-0.177106 -0.100468 0)
)
;

boundaryField
{
  floor
  {
    type noSlip;
  }
  ceiling
  {
    type noSlip;
  }
  sWall
  {
    type noSlip;
  }
  nWall
  {
    type noSlip;
  }
  sideWalls
  {
    type empty;
  }
  glass1
  {
    type noSlip;
  }
  glass2
  {
    type noSlip;
  }
  sun
  {
    type noSlip;
  }
  heatsource1
  {
    type noSlip;
  }
  heatsource2
  {
    type noSlip;
  }
  Table_master
  {
    type noSlip;
  }
  Table_slave
  {
    type noSlip;
  }
  inlet
  {
    type fixedValue;
    value uniform (0.277164 -0.114805 0);
  }
  outlet
  {
    type zeroGradient;
  }
} 	// ************************************************************************* //

