/*--------------------------------*- C++ -*----------------------------------*=========                 |
  \      /  F ield         | OpenFOAM: The Open Source CFD Toolbox
   \    /   O peration     | Website:  https://openfoam.org
    \  /    A nd           | Version:  6
     \/     M anipulation  |
\*---------------------------------------------------------------------------*/
FoamFile
{
    version     2.0;
    format      ascii;
    class       volScalarField;
    location    "2600";
    object      PPD;
}
// * * * * * * * * * * * * * * * * * * * * * * * * * * * * * * * * * * * * * //

dimensions      [0 0 0 0 0 0 0];

internalField   nonuniform List<scalar> 
459
(
59.26415425512977
47.5428712923663
46.137913347803675
44.886466986645004
44.066332850976146
43.596943933299265
43.454774346945165
43.631640742767416
44.14653902035771
45.061068332490564
46.43059195741161
48.3463693572369
50.90093557604128
52.92120224728239
53.155376416114855
56.6408211532712
55.93927263126843
55.67927849780719
55.783285192486076
55.91327668925041
56.06923996146388
56.1701603898832
55.94612842874114
55.90598196069136
55.94789636145411
56.02152927164599
56.14435274777748
56.271231017592335
56.446444146056855
56.72329162010409
57.219295726570195
57.574931598366156
57.75635520308539
58.42951127249228
57.20830643367845
48.67552252678762
48.23695621411382
47.08799512953565
46.43266597209163
46.0362691304994
45.91241023303566
46.02002459536671
46.26480897110078
46.71287649746463
47.5299951744298
48.802480352911324
50.65878457214246
52.45296481198952
52.478973351802004
52.478973351802004
52.478973351802004
54.65702476485027
55.44522334890592
55.237132852469166
55.315170986925054
55.12947915443694
54.89760164415844
54.820227801055886
54.84957720293086
54.909649297523025
54.95222930418865
54.98611829203541
55.02440378341661
55.07068124439709
55.12832619721482
55.28887379879485
55.70113113700061
56.53693362470226
56.84854258186629
56.36673757683181
59.50615246003733
48.833016578616444
50.15249464761109
49.63901862068434
49.50243654079152
49.45616467197806
49.536484539756
49.58260872499551
49.35185303556602
48.9487658837945
48.77278323577054
49.100679671619176
50.060380180434066
51.74308868710301
52.322931522388565
52.45296481198952
52.53099222982104
49.78389953404254
52.00664294972337
52.69002669934278
53.19189182595416
53.73033920007255
54.0953813495317
54.289734791567675
54.754900265908596
55.061415874048066
55.20319986782706
55.26623817944954
55.29905608747112
55.327114577363176
55.282327085981045
55.05740101958108
55.169343533763836
56.13049738612993
55.65398419876826
53.03804221722449
63.54106046760562
49.13206699360068
51.690172753617205
52.243135364977555
53.194144960055645
54.03867374110245
54.71533257345682
54.4679097612253
53.034248710391246
51.05735377772439
49.38774465124427
48.55264468382765
48.70223515880348
49.8226321046496
51.52968523013108
52.50498249455946
51.70475975814147
49.519058013964866
49.47136014396187
50.95654709883861
52.352603987077984
53.52048378712805
54.55366391763316
55.2866979929374
55.577839005906995
55.5335589583085
55.536132203064426
55.595616956713556
55.71267381321938
55.904133790962355
56.269805773573985
56.89526704332178
58.097070612100204
57.76650155547876
56.96739607713735
54.57084481661174
50.62046696674015
68.22095511852774
50.251944497856776
53.161739591133305
54.744073646969646
57.346791700025996
60.299003138375404
61.59384273311973
59.083054193446856
55.19775648301397
51.456078744747025
48.767506989103275
47.29777879676643
47.1396387543566
48.048440979905024
49.615113966459425
51.05180779057092
51.440816932778645
51.27445091103831
51.72879765367508
53.078574554451976
54.680731861227706
56.13945414914218
57.38561003019856
58.19662774233284
58.662244702739066
59.04977859935779
59.12300320049312
59.13125600851409
59.11719597112917
59.033342181494945
58.987580271651304
59.04633184893681
59.098844204236485
58.35138606427488
56.928259010185236
53.60566271046148
53.26412702156706
60.28650766887245
59.536348322901716
50.72582067416463
72.70525821709904
52.5838258242295
56.048711034523464
57.65373287968088
61.389283252716474
62.892868380915516
62.267381156804774
57.967810918339005
53.736176435778845
49.87951659163423
47.034699293913945
45.590373639049815
45.60185575081978
46.851153969778565
48.87337235301746
51.059315114249
52.74674361328753
53.94125789798918
55.23424990186168
56.900461260680174
57.808176553780115
58.61053954143925
59.25627111177137
59.74611567304968
60.18366249378212
60.517753866063686
60.77443370224945
60.953940880267375
61.030828906253646
60.97957315944929
60.80008621104417
60.517753866063686
60.15794468432715
58.94821687791096
57.073339564467105
53.5940414463327
53.51644002158623
54.294408942534474
54.223100656843414
54.8940673838359
76.88027958415061
57.75924337263363
64.17991819513242
62.80345044829248
62.617890290534774
61.20764449337915
58.31404930991959
54.34168458339578
50.04349486205837
46.3859490347688
44.04654469839324
43.400230671461735
44.353344302594614
46.588632447181716
49.67975534079946
53.03388687611194
55.28915881373433
56.5888795512923
57.73044216760019
58.739787783035744
59.59151834826806
60.312212392384176
60.85138264602627
61.2613322182295
61.59384273311973
61.849253887878035
62.02784577508407
62.1043346768494
62.1043346768494
61.97683625724283
61.67050012118557
61.28692857551898
60.82573586260369
60.20937770787902
58.19861978944131
54.968393201286474
53.71972797724171
53.0416047898005
51.64807078938206
56.37783434940241
82.46310444395857
74.23081161074546
72.11363600011126
67.11189885851013
64.01389888269436
59.60253981331874
53.95110096613735
48.16123813246644
43.47170879017456
40.67781051777139
39.97658093109029
41.31971295239905
44.24324031460822
48.35461495628667
53.246727801735815
55.5752605524416
57.34156565835451
58.765631523052036
59.87488060904504
60.72312015658839
61.389283252716474
61.90029682269042
62.308154145134544
62.58803912758894
62.79131767656756
62.94362128778161
63.01972234832465
63.01972234832465
62.94362128778161
62.79131767656756
62.51174967243109
62.1043346768494
61.644950871558095
61.08207283164584
60.492070647613005
59.90062624688579
58.62505991451234
57.89407396519724
54.66033023270328
50.20701572265197
89.22372811422966
84.93601830724421
78.30216456329278
69.79518543502158
58.85339663015661
47.127055590620124
38.25487234905361
33.147561734308226
31.551223090038278
32.88407391786055
36.518240785795214
41.951279717263304
48.45060353003939
53.02527586124085
56.04324818204643
58.4553781002642
60.0035839364388
61.0564523520766
61.8237274595336
62.43542794515682
62.892868380915516
63.073252333311835
63.045413022241235
63.01194827390945
62.92521073370959
62.78023528262405
62.552739769673515
62.22822095396543
61.819033024987064
61.32888934680905
60.748410512901636
60.10664206313387
59.52253271593574
58.8157380807951
58.0444636771945
57.35944526123809
56.84950611724175
56.479322268211625
55.77487276045869
54.228012409322375
98.99934137449954
68.87880752939797
32.333254355668984
8.21534092237323
5.58086288253412
12.580498428923292
24.158814038889886
35.98002796412011
44.34356285162238
51.075647742019186
55.13307477097983
57.93770188752591
59.0986026757514
60.02017116221112
60.70848425472113
61.198646444278005
61.52348116879298
61.737857556782295
61.8080002781605
61.81855303149916
61.75471443926993
61.6379116941884
61.48269624196876
61.27939123105208
61.024335618867624
60.77477349040962
60.4910608601197
60.243596302173046
60.05222853890733
59.919919410786804
59.8218894116605
59.756949245454436
59.750444032647856
59.862992095298544
60.31644723250386
61.95391276726047
67.83084878173462
59.66845321135116
92.76887433496938
26.24651083275745
5.034944600536178
11.894266985482417
22.078045221637936
30.614152603532546
38.0272171609317
44.17864188404018
49.09451884415401
52.833617149794165
55.37384643300762
57.16314194027615
58.44608602100758
59.349916761220484
59.97184264391318
60.40609823548996
60.70525276320981
60.9038021014826
61.013417779120566
61.074684829629355
61.107013668769426
61.12667555476749
61.104568990272654
61.06587887719665
60.985851783926904
60.92263647751622
60.86178803525809
60.825087934933805
60.86761734031134
61.008672039704244
61.34979080438248
61.914667211656116
62.585070025558444
63.19911131018873
63.96266423653044
67.14457376530024
61.79777370213918
66.4179338170419
20.504151385927443
25.974269238296387
21.21860171924932
7.895726250501383
21.60190143602061
30.644699415303435
37.01870471361633
42.261897468231915
46.65236659995552
50.28570572882959
53.269358305868515
55.55462460281044
57.220626927853466
58.37938491353885
59.138164270260326
59.590019212155816
59.84510518238373
59.966164745386465
59.98562000674607
59.98481107922389
59.95587344291273
59.962426853460094
59.97467296145588
59.979697353160425
60.03116872369648
60.07581473857397
60.17218965174041
60.277036955845645
60.43597449762616
60.697620624803264
61.065327312576215
61.63948843223343
62.64123893856017
64.42818662291582
66.0326163479225
66.28064051656905
66.52814619824497
62.62970836164158
62.86004086890151
57.62589036641142
)
;

boundaryField
{
    ".*"
    {
        type            zeroGradient;
    }
}


// ************************************************************************* //
