/*--------------------------------*- C++ -*----------------------------------*\
  =========                 |
  \\      /  F ield         | OpenFOAM: The Open Source CFD Toolbox
   \\    /   O peration     | Website:  https://openfoam.org
    \\  /    A nd           | Version:  6
     \\/     M anipulation  |
\*---------------------------------------------------------------------------*/
FoamFile
{
    version     2.0;
    format      ascii;
    class       volScalarField;
    location    "500";
    object      nut;
}
// * * * * * * * * * * * * * * * * * * * * * * * * * * * * * * * * * * * * * //

dimensions      [0 2 -1 0 0 0 0];

internalField   nonuniform List<scalar> 
459
(
0.000733772
0.000763775
0.000750129
0.000775047
0.000796616
0.000814906
0.00083065
0.000844621
0.000857619
0.00087061
0.000880537
0.000886468
0.000888359
0.000887815
0.000885292
0.000714633
0.000670629
0.000633688
0.00060744
0.000587003
0.000566536
0.000542067
0.000518605
0.000495965
0.000474221
0.000453476
0.000433763
0.000415032
0.000397126
0.000379717
0.000362246
0.000343764
0.000333303
0.000308106
0.00113078
0.00176702
0.00147793
0.00173615
0.00185805
0.00198721
0.00211598
0.00223379
0.00232542
0.00237047
0.00238143
0.00233022
0.00218031
0.00188225
0.00140004
0.00091372
0.000856952
0.000843256
0.001439
0.00182973
0.00209022
0.00220339
0.00213108
0.00176982
0.00153665
0.00135858
0.00121554
0.00109617
0.000993983
0.000903779
0.000820116
0.000738558
0.000667806
0.000604568
0.000732882
0.000411346
0.0014987
0.00270443
0.00159169
0.0024436
0.00264037
0.0027767
0.00288367
0.00296625
0.00302789
0.00306491
0.00307922
0.00304607
0.00293081
0.00268906
0.00227885
0.00171021
0.00100885
0.000961837
0.00264531
0.0031175
0.00323099
0.00316461
0.00266342
0.000682966
0.000595145
0.00053176
0.000484494
0.000448019
0.000418991
0.000395429
0.000376407
0.000362327
0.000412669
0.000477779
0.000840065
0.000489905
0.00187975
0.00414845
0.00156724
0.00273216
0.00307627
0.00319366
0.00325779
0.00329589
0.00332362
0.00334643
0.00336767
0.00337331
0.00333824
0.00322587
0.00297697
0.00250239
0.00175771
0.00104987
0.00297756
0.00339001
0.00355246
0.00355312
0.00342953
0.00286459
0.000706912
0.000662767
0.00064605
0.000638024
0.000629068
0.000613059
0.000589186
0.000563694
0.000532456
0.000506189
0.000508796
0.0010438
0.000547623
0.00226809
0.00605473
0.0019823
0.00257551
0.00325687
0.00339275
0.00342834
0.00343037
0.00342755
0.00343867
0.00346667
0.00351049
0.00354403
0.00353799
0.00346171
0.00330214
0.003119
0.00303203
0.00319797
0.0034858
0.00354742
0.00352176
0.00345748
0.00331173
0.00290295
0.00283583
0.00282479
0.00280044
0.00273793
0.00262433
0.00241944
0.00209236
0.00169836
0.00129034
0.000939367
0.000983893
0.000714368
0.000699414
0.000826023
0.000922374
0.00266365
0.00808299
0.003488
0.00226402
0.00303445
0.00336928
0.0034765
0.00349468
0.00346353
0.00343396
0.00346145
0.00353652
0.00361122
0.00365234
0.00361441
0.00343456
0.00310448
0.0028157
0.00297558
0.00345322
0.00350329
0.00344087
0.00339452
0.00338148
0.00336934
0.00338977
0.003394
0.00335842
0.00328257
0.00317279
0.00303319
0.00278469
0.00242116
0.001958
0.00148878
0.0010607
0.000911006
0.000851893
0.00126403
0.000970121
0.00305899
0.00974405
0.00646175
0.00338102
0.00249977
0.00262226
0.00300343
0.00332091
0.00351989
0.00340456
0.00344687
0.00353344
0.00361973
0.00368561
0.00369061
0.00354102
0.00313111
0.00260351
0.00273773
0.00347506
0.00353627
0.00343324
0.00337336
0.00337799
0.00340837
0.00343119
0.00341891
0.00336243
0.00327964
0.00318931
0.00310773
0.00301116
0.00274604
0.00233555
0.001913
0.00148013
0.00126926
0.00127903
0.00138752
0.00112379
0.0031599
0.00973376
0.00799478
0.00636606
0.00468165
0.00356247
0.00313805
0.00316777
0.00340779
0.00346589
0.00349163
0.00353739
0.00359818
0.0036536
0.00367004
0.00357749
0.00320146
0.00248051
0.00251174
0.00355
0.00364556
0.0035003
0.00342006
0.00340567
0.00340201
0.00337356
0.00330751
0.00321412
0.0031209
0.0030603
0.00305506
0.00310087
0.00307048
0.0027468
0.00249103
0.00243486
0.0027318
0.00349839
0.00456439
0.00169015
0.00309928
0.00375663
0.00427653
0.00447979
0.00439348
0.00406759
0.00373542
0.00351908
0.00343474
0.00340234
0.0034265
0.00348222
0.00354354
0.00358695
0.00359154
0.00351238
0.00315929
0.00235005
0.00229628
0.00365007
0.00382275
0.00362573
0.00352829
0.00349036
0.00344069
0.00335046
0.00321323
0.00304108
0.00286136
0.00270433
0.00258765
0.00251207
0.00246825
0.0024492
0.00248527
0.00255726
0.00258147
0.00247934
0.00228653
0.00158417
0.00238326
0.0041952
0.00438985
0.00429485
0.00411795
0.00395352
0.00383692
0.00375297
0.00369095
0.00363901
0.00358123
0.00350789
0.00341844
0.00329115
0.00291816
0.00204986
0.00204876
0.00385009
0.00406952
0.0037877
0.00371556
0.00370149
0.00365192
0.00355417
0.00340688
0.00321856
0.00301445
0.00283129
0.00270501
0.00265238
0.00265456
0.00269772
0.00277289
0.00285673
0.00292802
0.00301028
0.00266816
0.0013793
0.00250268
0.00482701
0.0049221
0.00470589
0.00448879
0.00427819
0.00407024
0.0038699
0.00365442
0.00339425
0.00312269
0.00286378
0.00263757
0.00244486
0.00217906
0.00158183
0.00174104
0.00364312
0.00373218
0.00350488
0.00349782
0.00351485
0.00348799
0.00342748
0.00334348
0.00324515
0.0031437
0.00304681
0.00296248
0.00293595
0.00296331
0.0030308
0.00312017
0.00322648
0.00337414
0.00338524
0.00226716
0.00139885
0.00215896
0.00227943
0.00238229
0.00252235
0.00235783
0.00218529
0.00201679
0.00187093
0.00173485
0.0016086
0.00149475
0.00139754
0.00130946
0.00122715
0.00114961
0.0010772
0.00100954
0.000940594
0.000923734
0.000989648
0.000974812
0.000964344
0.000963226
0.00096314
0.000962483
0.000963094
0.000967061
0.00097647
0.000993509
0.00102076
0.00106054
0.0011098
0.00116964
0.00123921
0.00131759
0.00141224
0.00143548
0.00132628
0.00121584
0.00130967
)
;

boundaryField
{
    floor
    {
        type            nutkWallFunction;
        Cmu             0.09;
        kappa           0.41;
        E               9.8;
        value           nonuniform List<scalar> 
29
(
0.000107127
8.65215e-05
8.11184e-05
7.65495e-05
7.32838e-05
7.07292e-05
6.81599e-05
6.5073e-05
6.2097e-05
5.92095e-05
5.64208e-05
5.37452e-05
5.11885e-05
4.87455e-05
4.6397e-05
4.41008e-05
4.17827e-05
3.93147e-05
3.79105e-05
3.45036e-05
3.45035e-05
4.82646e-05
5.84355e-05
6.57768e-05
0.000107127
8.65215e-05
0.000102099
0.000116215
0.000126564
)
;
    }
    ceiling
    {
        type            nutkWallFunction;
        Cmu             0.09;
        kappa           0.41;
        E               9.8;
        value           nonuniform List<scalar> 
43
(
0.000250434
0.000263393
0.000274404
0.000289441
0.000271945
0.000253431
0.000235185
0.000219254
0.000204268
0.00019025
0.000177504
0.000166538
0.000156527
0.000147105
0.000138164
0.000129751
0.000121834
0.000113703
0.000111703
0.000119496
0.00011775
0.000116513
0.000116381
0.000116371
0.000116293
0.000116366
0.000116834
0.000117944
0.000119952
0.000123154
0.000127812
0.000133552
0.000140486
0.000148498
0.000157464
0.000168213
0.00017084
0.000158455
0.000145813
0.000156563
0.000350398
0.000418126
0.000287106
)
;
    }
    sWall
    {
        type            nutkWallFunction;
        Cmu             0.09;
        kappa           0.41;
        E               9.8;
        value           uniform 0.000250503;
    }
    nWall
    {
        type            nutkWallFunction;
        Cmu             0.09;
        kappa           0.41;
        E               9.8;
        value           nonuniform List<scalar> 6(0.000111545 0.000117198 0.000135184 0.000164498 0.000166713 0.000156577);
    }
    sideWalls
    {
        type            empty;
    }
    glass1
    {
        type            nutkWallFunction;
        Cmu             0.09;
        kappa           0.41;
        E               9.8;
        value           nonuniform List<scalar> 9(8.88335e-05 0.000136121 0.000178214 0.000220601 0.000262842 0.000305078 0.000346637 0.000357163 0.000350867);
    }
    glass2
    {
        type            nutkWallFunction;
        Cmu             0.09;
        kappa           0.41;
        E               9.8;
        value           nonuniform List<scalar> 2(0.000199451 0.000187646);
    }
    sun
    {
        type            nutkWallFunction;
        Cmu             0.09;
        kappa           0.41;
        E               9.8;
        value           nonuniform List<scalar> 
14
(
8.8858e-05
9.25086e-05
9.08503e-05
9.38753e-05
9.64844e-05
9.86904e-05
0.000100585
0.000102262
0.00010382
0.000105374
0.00010656
0.000107267
0.000107493
0.000107428
)
;
    }
    heatsource1
    {
        type            nutkWallFunction;
        Cmu             0.09;
        kappa           0.41;
        E               9.8;
        value           nonuniform List<scalar> 3(8.46608e-05 0.000100029 0.000111539);
    }
    heatsource2
    {
        type            nutkWallFunction;
        Cmu             0.09;
        kappa           0.41;
        E               9.8;
        value           nonuniform List<scalar> 4(0.00011051 0.000103738 0.000103738 0.00012175);
    }
    Table_master
    {
        type            nutkWallFunction;
        Cmu             0.09;
        kappa           0.41;
        E               9.8;
        value           nonuniform List<scalar> 9(8.26417e-05 7.17542e-05 6.3776e-05 5.7751e-05 5.30516e-05 4.92776e-05 4.619e-05 4.36803e-05 4.18123e-05);
    }
    Table_slave
    {
        type            nutkWallFunction;
        Cmu             0.09;
        kappa           0.41;
        E               9.8;
        value           nonuniform List<scalar> 9(8.55802e-05 8.01533e-05 7.80872e-05 7.7093e-05 7.5982e-05 7.39909e-05 7.10098e-05 6.78102e-05 6.38654e-05);
    }
    inlet
    {
        type            calculated;
        value           uniform 0.000100623;
    }
    outlet
    {
        type            calculated;
        value           nonuniform List<scalar> 2(0.00215896 0.00227943);
    }
}


// ************************************************************************* //
