/*--------------------------------*- C++ -*----------------------------------*\
  =========                 |
  \\      /  F ield         | OpenFOAM: The Open Source CFD Toolbox
   \\    /   O peration     | Website:  https://openfoam.org
    \\  /    A nd           | Version:  6
     \\/     M anipulation  |
\*---------------------------------------------------------------------------*/
FoamFile
{
    version     2.0;
    format      ascii;
    class       surfaceScalarField;
    location    "500";
    object      phi;
}
// * * * * * * * * * * * * * * * * * * * * * * * * * * * * * * * * * * * * * //

dimensions      [1 0 -1 0 0 0 0];

internalField   nonuniform List<scalar> 
852
(
-0.00277827
0.00284686
-0.0032907
0.000512477
-0.0038752
0.000584538
-0.00443193
0.000556775
-0.00491746
0.000485567
-0.00531224
0.000394827
-0.00559869
0.000286493
-0.00575609
0.000157435
-0.00575978
3.72872e-06
-0.00557879
-0.000180946
-0.00518564
-0.000393108
-0.00456253
-0.000623072
-0.00366713
-0.000895359
-0.00230344
-0.00136365
-0.00230032
0.000984958
-0.000981271
0.00148766
-0.000502657
0.00171181
-0.000224091
0.00184694
-0.000135077
0.0019485
-0.000101509
0.00200963
-6.10864e-05
0.00201
-3.12848e-07
0.00197677
3.32756e-05
0.00193457
4.2258e-05
0.00189111
4.35077e-05
0.00184733
4.38311e-05
0.00180248
4.49117e-05
0.00175326
4.92729e-05
0.00169034
6.29697e-05
0.00159089
9.9502e-05
0.00141776
0.000173186
0.00116429
0.000253528
0.000885691
0.000278654
0.000892184
-0.00201602
0.00504474
-0.00277251
0.001269
-0.00348194
0.00129401
-0.00407039
0.00114527
-0.00456844
0.000983658
-0.00497528
0.000801707
-0.00527906
0.000590322
-0.00546208
0.000340494
-0.00550323
4.49228e-05
-0.00538599
-0.000298143
-0.00509721
-0.000681848
-0.0046263
-0.00109395
-0.00397363
-0.00154799
-0.00327897
-0.00205827
-0.00320949
-0.00236976
-0.00125679
-0.00195272
-0.0012568
0.000704822
-0.00167633
0.000961945
-0.000759728
0.00113034
-0.000392439
0.00127912
-0.000283804
0.00141001
-0.00023234
0.00151387
-0.000164891
0.00153783
-2.42218e-05
0.0015449
2.62539e-05
0.00155058
3.66312e-05
0.00155563
3.85111e-05
0.00155981
3.97027e-05
0.00156314
4.16409e-05
0.00156498
4.74822e-05
0.00156198
6.60257e-05
0.00152499
0.000136554
0.00135274
0.000345485
0.00105639
0.000549933
0.000709063
0.000626043
0.00161757
-0.00147672
0.00679451
-0.00228903
0.00208136
-0.00296827
0.00197329
-0.00350228
0.00167933
-0.00396032
0.00144174
-0.00434426
0.00118569
-0.00464239
0.000888497
-0.00483715
0.000535295
-0.0049085
0.000116313
-0.004838
-0.000368592
-0.00461725
-0.000902555
-0.00425672
-0.00145444
-0.00380616
-0.0019985
-0.00338042
-0.00248397
-0.002977
-0.00277314
-0.00202405
-0.00290563
-0.0032808
-5.10409e-05
-0.00161055
0.000241072
-0.00105179
0.000537644
-0.000688958
0.000762665
-0.000508772
0.000945435
-0.000415056
0.00113711
-0.000356509
0.00111309
0.00113956
0.0011764
0.00121512
0.00125503
0.00129688
0.00134457
0.00141081
0.00154757
0.00128079
0.00061232
0.000952482
0.000878299
0.000575914
0.00100267
0.00221783
-0.00109459
0.00823577
-0.00188498
0.00287179
-0.00238013
0.00246848
-0.00279013
0.00208938
-0.00316265
0.00181429
-0.00349039
0.00151347
-0.00376014
0.00115829
-0.00395371
0.000728918
-0.00404661
0.000209248
-0.00401234
-0.000402815
-0.00384879
-0.00106606
-0.00359308
-0.00171012
-0.00331375
-0.00227779
-0.0030748
-0.00272288
-0.00283736
-0.00301054
-0.00258853
-0.00315443
-0.00300583
-0.00286347
-0.000908552
-0.00208094
-0.000516441
-0.00200261
-0.000152239
-0.00141594
0.000161182
-0.00100233
0.000400293
-0.00074783
0.000579023
-0.000593733
0.00068467
-0.000462103
0.000996573
-0.000312004
0.00126819
-0.00027172
0.00151938
-0.000251287
0.00174241
-0.000223132
0.00191482
-0.000172512
0.00200151
-8.67938e-05
0.00196326
3.81536e-05
0.00176661
0.00019655
0.00136073
0.000405779
0.00117069
0.000802408
0.000796195
0.00125285
0.000219764
0.00157916
0.0024692
-0.000803982
0.00944675
-0.00153531
0.00360316
-0.00173315
0.00266637
-0.00198024
0.00233651
-0.0022353
0.00206939
-0.0024699
0.00174812
-0.00267112
0.00135955
-0.00282532
0.000883159
-0.00290886
0.000292833
-0.00288006
-0.000431566
-0.00274179
-0.00120428
-0.00255192
-0.00189994
-0.00237151
-0.00245815
-0.00223152
-0.00286283
-0.00211996
-0.00312205
-0.00204407
-0.00323029
-0.00181169
-0.00309581
-0.0010404
-0.00285218
-0.000580582
-0.00246239
-0.0002874
-0.00170907
-5.08319e-05
-0.00123884
0.000150286
-0.000948894
0.000321777
-0.000765171
0.000492983
-0.000633255
0.000721583
-0.000540551
0.000944285
-0.000494368
0.00115797
-0.000464918
0.00135853
-0.000423638
0.00153174
-0.000345673
0.00165095
-0.00020595
0.00167769
1.14692e-05
0.00158968
0.000284614
0.00140279
0.000592715
0.00120956
0.000995696
0.000974526
0.00148794
0.000437064
0.00211668
0.000191313
0.00271501
-0.00126619
0.00145736
-0.00172531
0.000458972
-0.0016641
-0.00071184
0.0106159
-0.00133474
0.00422609
-0.0010701
0.00240178
-0.00108084
0.00234729
-0.00121987
0.00220847
-0.00134931
0.0018776
-0.00144742
0.00145771
-0.00151527
0.000951053
-0.00154067
0.000318271
-0.00147542
-0.000496772
-0.00134926
-0.0013304
-0.00122753
-0.00202163
-0.00115197
-0.00253367
-0.00113616
-0.00287861
-0.00117093
-0.00308725
-0.00121986
-0.00318132
-0.00112563
-0.00319001
-0.000774925
-0.00320285
-0.000461528
-0.00277573
-0.000303272
-0.00186727
-0.000182879
-0.00135918
-6.49355e-05
-0.00106678
5.41857e-05
-0.000884239
0.00018617
-0.000765186
0.000338205
-0.000692531
0.000499002
-0.000655112
0.00066535
-0.000631214
0.000836782
-0.000595017
0.00100896
-0.000517794
0.0011679
-0.00036484
0.00128213
-0.000102708
0.00132226
0.000244528
0.00130922
0.000605807
0.00130276
0.00100221
0.00137211
0.00141865
0.00151963
0.00196921
0.00204227
0.00219242
0.00233083
0.00116886
0.00195597
0.000833886
0.000364813
-0.000965631
0.0120824
-0.00105432
0.00431483
-0.000156335
0.00150383
9.99292e-05
0.00209107
1.11157e-05
0.00229733
-7.96199e-05
0.00196838
-8.47854e-05
0.00146292
-3.099e-05
0.000897301
8.2386e-05
0.000204939
0.000217418
-0.000631761
0.000311936
-0.00142487
0.000326615
-0.00203626
0.000253576
-0.00246059
0.000102775
-0.00272778
-0.000104872
-0.00287956
-0.000325301
-0.00296086
-0.000467547
-0.00304774
-0.000397687
-0.00327268
-0.000272649
-0.00290072
-0.000276481
-0.00186339
-0.000290208
-0.0013454
-0.000281138
-0.0010758
-0.000253522
-0.000911801
-0.000208059
-0.000810596
-0.000145993
-0.000754544
-7.04984e-05
-0.000730554
1.9167e-05
-0.000720826
0.000126897
-0.000702695
0.000259251
-0.000650096
0.000425354
-0.000530892
0.000628177
-0.00030548
0.000821539
5.1216e-05
0.000988895
0.000438502
0.00118839
0.000802771
0.00150411
0.00110298
0.00202555
0.00144783
0.00283841
0.00137962
0.00348063
0.000526688
0.00358946
0.000725113
0.00403185
0.00234433
0.0102947
0.00281704
0.00384215
0.00275884
0.00156206
0.00253963
0.00231032
0.00220144
0.00263557
0.00198029
0.00218957
0.00192284
0.00152041
0.00198586
0.000834324
0.00215896
3.18853e-05
0.0022914
-0.000764159
0.00225737
-0.0013908
0.00206858
-0.00184743
0.00176506
-0.00215704
0.00138514
-0.00234783
0.00096126
-0.00245565
0.000530104
-0.00252968
0.000156054
-0.00267366
-1.00695e-05
-0.00310653
-6.76356e-05
-0.00284311
-0.000247429
-0.00168354
-0.000413823
-0.00117895
-0.000522556
-0.000967016
-0.000597178
-0.000837126
-0.000652606
-0.000755114
-0.000695755
-0.000711342
-0.000731106
-0.00069515
-0.000758977
-0.000692904
-0.000774251
-0.000687369
-0.000765394
-0.000658902
-0.000709516
-0.000586718
-0.000567394
-0.000447552
-0.000301635
-0.000214493
1.56253e-05
0.000121292
0.000353295
0.000465152
0.000739555
0.000716772
0.00125218
0.000935252
0.00175993
0.000871925
0.00178553
0.000501134
0.000754766
0.00175593
0.00512653
0.0109106
0.0147507
0.0126089
0.00370394
0.0103556
0.00456361
0.00855953
0.0044317
0.00732367
0.00342547
0.00650847
0.00233565
0.00600382
0.00133901
0.00555632
0.000479429
0.00503033
-0.000238132
0.00444679
-0.000807222
0.00382611
-0.00122671
0.00317928
-0.00151017
0.00251683
-0.00168534
0.00184957
-0.00178837
0.0011948
-0.00187487
0.000617185
-0.00209602
0.000331681
-0.002821
0.000148807
-0.00266018
-0.000267368
-0.00126731
-0.000591293
-0.000854971
-0.000795071
-0.000763184
-0.000956242
-0.000675901
-0.00110576
-0.000605546
-0.00125493
-0.000562111
-0.00141343
-0.000536601
-0.00158838
-0.000517904
-0.00178436
-0.000491338
-0.00200579
-0.00043742
-0.00225782
-0.000334639
-0.00254554
-0.000159775
-0.00286937
0.000109391
-0.00322897
0.000480942
-0.00372547
0.000961702
-0.00453088
0.00152223
-0.00569574
0.00210017
-0.00732583
0.00250207
-0.00930948
0.00248483
-0.00870387
0.00115037
-0.00320139
0.00457514
0.00500062
0.00457822
0.00456055
0.00566844
0.00334151
0.0060864
0.00300754
0.00613647
0.00228561
0.0060654
0.00141012
0.00589272
0.000652147
0.00557043
8.4184e-05
0.00508334
-0.00032009
0.0044785
-0.000621845
0.00380101
-0.000832653
0.00308457
-0.000968873
0.00234576
-0.00104953
0.00158387
-0.00111296
0.00085686
-0.00136899
0.000520796
-0.00248491
0.000253638
-0.00239297
-0.00047758
-0.000536034
-0.000888405
-0.000444091
-0.00110369
-0.00054784
-0.00129827
-0.000481273
-0.00149158
-0.000412182
-0.00168647
-0.000367169
-0.00189606
-0.000326963
-0.00212979
-0.000284119
-0.00238653
-0.000234547
-0.00265312
-0.000170779
-0.00290324
-8.44611e-05
-0.00309988
3.69111e-05
-0.0032402
0.000249762
-0.00334153
0.000582327
-0.00342506
0.00104529
-0.00350575
0.00160297
-0.00351314
0.00210761
-0.00327699
0.00226597
-0.0018386
0.00104649
0.00033261
-0.00102079
-0.00277796
-0.000808054
0.00586611
0.00128599
0.00246652
0.00252344
0.00210408
0.00347792
0.00205308
0.00423358
0.00152999
0.00469628
0.000947442
0.00485874
0.00048972
0.00477195
0.000171003
0.00451501
-6.31235e-05
0.00413076
-0.000237562
0.00365401
-0.000355873
0.00311496
-0.000429797
0.00253137
-0.000465911
0.00190413
-0.000485691
0.00121713
-0.00068196
0.000453235
-0.00172098
-0.000373487
-0.00156617
-0.00100082
9.13551e-05
-0.00131241
-0.000132435
-0.00153214
-0.00032806
-0.00173012
-0.000283244
-0.00190572
-0.000236524
-0.0020601
-0.000212741
-0.00219957
-0.000187435
-0.00232955
-0.000154087
-0.00245203
-0.000112015
-0.00256448
-5.82736e-05
-0.00265994
1.10496e-05
-0.00271485
9.18733e-05
-0.00267586
0.000210825
-0.00250372
0.000410244
-0.00216814
0.000709756
-0.00168458
0.00111946
-0.0010248
0.00144787
0.000174571
0.00106666
0.00190804
-0.000686925
0.00335918
-0.00247188
0.000680999
-0.00899089
-0.0116753
-0.00575953
-0.00326293
-0.00113411
0.000940836
0.00249179
0.00346039
0.00397197
0.00416582
0.00412667
0.00391415
0.00358441
0.0031819
0.00274448
0.00228853
0.0016376
-5.10993e-05
-0.00158868
-0.0014706
-0.00157625
-0.00187746
-0.00213394
-0.00234378
-0.00252991
-0.00269081
-0.00281852
-0.00290439
-0.00293691
-0.00290064
-0.00278429
-0.00254985
-0.00211694
-0.00138556
-0.000245548
0.00122157
0.00230705
0.00164002
-0.000811604
)
;

boundaryField
{
    floor
    {
        type            calculated;
        value           nonuniform List<scalar> 
29
(
0
0
0
0
0
0
0
0
0
0
0
0
0
0
0
0
0
0
0
0
-6.4365e-06
-1.6271e-05
-2.42792e-05
-3.15532e-05
-3.07599e-06
-3.63687e-06
-9.70849e-06
-1.46906e-05
-1.62951e-05
)
;
    }
    ceiling
    {
        type            calculated;
        value           nonuniform List<scalar> 
43
(
-5.33701e-05
-5.14328e-05
-4.96486e-05
-3.00545e-05
-2.47122e-05
-2.18368e-05
-2.09351e-05
-2.11321e-05
-2.18282e-05
-2.28206e-05
-2.39428e-05
-2.50143e-05
-2.6107e-05
-2.72531e-05
-2.84594e-05
-2.97102e-05
-3.09975e-05
-3.22217e-05
-2.85019e-05
-2.66734e-05
-2.67315e-05
-2.67928e-05
-2.67139e-05
-2.66285e-05
-2.65609e-05
-2.6475e-05
-2.633e-05
-2.60869e-05
-2.57096e-05
-2.51624e-05
-2.44237e-05
-2.35693e-05
-2.26074e-05
-2.15745e-05
-2.04984e-05
-1.91937e-05
-1.8763e-05
-1.98462e-05
-2.02013e-05
-1.73803e-05
4.59734e-06
2.118e-06
-5.74319e-05
)
;
    }
    sWall
    {
        type            calculated;
        value           uniform -0.000256625;
    }
    nWall
    {
        type            calculated;
        value           nonuniform List<scalar> 6(-6.13622e-05 -7.28813e-05 -7.75211e-05 -9.07696e-05 -9.9727e-05 -0.000113173);
    }
    sideWalls
    {
        type            empty;
        value           nonuniform 0();
    }
    glass1
    {
        type            calculated;
        value           nonuniform List<scalar> 9(-6.85513e-05 -0.000181822 -0.000273017 -0.000346633 -0.000406958 -0.000457319 -0.000500776 -0.000556656 -0.000620458);
    }
    glass2
    {
        type            calculated;
        value           nonuniform List<scalar> 2(-0.000339864 -0.000375891);
    }
    sun
    {
        type            calculated;
        value           uniform 0;
    }
    heatsource1
    {
        type            calculated;
        value           nonuniform List<scalar> 3(2.06209e-07 2.06029e-07 2.0604e-07);
    }
    heatsource2
    {
        type            calculated;
        value           nonuniform List<scalar> 4(5.13275e-08 5.15635e-08 0 0);
    }
    Table_master
    {
        type            calculated;
        value           nonuniform List<scalar> 9(-1.54724e-07 -1.54787e-07 -1.54798e-07 -1.54805e-07 -1.54809e-07 -1.54811e-07 -1.5481e-07 -1.54801e-07 -1.54765e-07);
    }
    Table_slave
    {
        type            calculated;
        value           nonuniform List<scalar> 9(1.54719e-07 1.5468e-07 1.54603e-07 1.54535e-07 1.54484e-07 1.54464e-07 1.54477e-07 1.54506e-07 1.54591e-07);
    }
    inlet
    {
        type            calculated;
        value           uniform -0.00587182;
    }
    outlet
    {
        type            calculated;
        value           nonuniform List<scalar> 2(0.0093009 0.00273586);
    }
}


// ************************************************************************* //
