/*--------------------------------*- C++ -*----------------------------------*\
  =========                 |
  \\      /  F ield         | OpenFOAM: The Open Source CFD Toolbox
   \\    /   O peration     | Website:  https://openfoam.org
    \\  /    A nd           | Version:  6
     \\/     M anipulation  |
\*---------------------------------------------------------------------------*/
FoamFile
{
    version     2.0;
    format      ascii;
    class       volScalarField;
    location    "150";
    object      alphat;
}
// * * * * * * * * * * * * * * * * * * * * * * * * * * * * * * * * * * * * * //

dimensions      [1 -1 -1 0 0 0 0];

internalField   nonuniform List<scalar> 
459
(
0.00163188
0.00183698
0.00202315
0.00198448
0.00169201
0.00141882
0.00115674
0.00101521
0.000909606
0.000827686
0.000771996
0.000734871
0.000708298
0.000688854
0.000672284
0.000498618
0.000591698
0.000611325
0.000576983
0.000522251
0.00045827
0.0003859
0.000249399
0.0001996
0.000202708
0.000211298
0.000210043
0.000203033
0.000215705
0.00025292
0.000311461
0.000387893
0.000396
0.000364317
0.00171816
0.0032034
0.00509036
0.00706824
0.00754882
0.00688326
0.00547015
0.00389371
0.00311975
0.00308886
0.00316769
0.00296008
0.00260938
0.00216148
0.00154899
0.00073304
0.000544366
0.000703884
0.00134402
0.0015711
0.00171549
0.00154455
0.00119637
0.000748757
0.000480499
0.000418125
0.00047157
0.000511676
0.000407426
0.000290255
0.000262256
0.000353477
0.000773183
0.0012274
0.00140846
0.000542762
0.00228637
0.00296866
0.00337929
0.00401161
0.00514305
0.00608986
0.00648373
0.00627116
0.00473533
0.00378461
0.00395906
0.00384854
0.00334446
0.00272998
0.00204928
0.00139386
0.000819227
0.000973258
0.00273055
0.00251748
0.00214429
0.00172962
0.00134594
0.000459028
0.000364542
0.000323676
0.000300964
0.000283771
0.000266704
0.000247525
0.000269536
0.000553214
0.00130749
0.00172812
0.00159569
0.000604705
0.00378518
0.00428137
0.00420629
0.00410755
0.00439142
0.00511013
0.00593005
0.00650044
0.00614351
0.00482691
0.00468956
0.00488215
0.00440501
0.00367276
0.00282833
0.00199842
0.00137569
0.00109585
0.00263387
0.00284624
0.00263136
0.00223984
0.00179342
0.0013174
0.000926489
0.000946006
0.000974208
0.00100743
0.00104394
0.00108367
0.00111791
0.0011288
0.00111139
0.00145231
0.00193177
0.0025962
0.00102381
0.00410923
0.00513879
0.00484602
0.00446048
0.00440392
0.00485291
0.00565916
0.00648089
0.00668018
0.00577375
0.00550716
0.00612559
0.00616177
0.00590905
0.00559254
0.00523822
0.00490593
0.00468734
0.00473035
0.00462122
0.0044753
0.00434278
0.00425063
0.00418972
0.00417702
0.00427191
0.00439408
0.00452293
0.00463452
0.00470528
0.00471595
0.00463968
0.00450454
0.00432594
0.00388568
0.00350069
0.0028738
0.00126531
0.00112471
0.00119429
0.00434949
0.00570377
0.00512326
0.00448282
0.00434882
0.00473221
0.00554689
0.00648141
0.00688665
0.00624441
0.00606177
0.00684629
0.00716401
0.00716478
0.00711161
0.00700887
0.00683193
0.0065916
0.00632041
0.00603097
0.00578846
0.00562547
0.00552809
0.00547044
0.00544021
0.00544054
0.00546404
0.00549178
0.00549491
0.00544746
0.0053449
0.0052167
0.00511817
0.00510549
0.00512723
0.00499362
0.00464449
0.00384259
0.00293902
0.0013856
0.00459905
0.005649
0.00442107
0.00424121
0.00429943
0.00472733
0.00556229
0.00651962
0.00693133
0.00643293
0.00626164
0.00706809
0.00749994
0.00760234
0.00764648
0.00763318
0.00752692
0.00732197
0.00704781
0.00675445
0.00649552
0.00629932
0.00615801
0.00604777
0.00595344
0.00588008
0.00583286
0.00579634
0.00573348
0.00560307
0.00539559
0.00516909
0.0050422
0.00512987
0.00543863
0.00574926
0.0056102
0.00483695
0.00402362
0.00160713
0.00492416
0.00548895
0.00450099
0.00403632
0.00453498
0.00499297
0.00571444
0.00654754
0.00690243
0.00651271
0.0062951
0.00691155
0.00737376
0.00752232
0.00760597
0.00763077
0.00757032
0.0074153
0.00718633
0.00692698
0.00668605
0.00649608
0.00636205
0.00626924
0.00620034
0.00615183
0.00612755
0.00611779
0.00607889
0.00593432
0.00561334
0.00511595
0.00453724
0.00400087
0.00357746
0.00320776
0.00285562
0.00256142
0.00232467
0.0016542
0.00545275
0.00635195
0.00800029
0.00425444
0.00491748
0.00568444
0.00611679
0.00670862
0.00696779
0.00659884
0.00621195
0.00641862
0.00682448
0.00701449
0.00709686
0.00711416
0.00706731
0.00695105
0.0067736
0.00656148
0.00635152
0.0061778
0.00606262
0.00601671
0.00604076
0.00612402
0.00624829
0.00639748
0.00655159
0.00666154
0.00664694
0.00644887
0.00607828
0.00554987
0.00491487
0.00431628
0.00383805
0.00352666
0.00334712
0.00183102
0.0126813
0.00649295
0.00482484
0.00660476
0.00680708
0.00711422
0.00721018
0.00672091
0.00624175
0.00608449
0.00612819
0.00615189
0.00612931
0.006075
0.00599529
0.00588853
0.00575417
0.00559981
0.00544183
0.00530153
0.00520113
0.0051635
0.00521347
0.00537159
0.00564123
0.00600105
0.00641949
0.00686611
0.00728564
0.00755669
0.00757994
0.00742881
0.00719214
0.00695425
0.00665031
0.00626083
0.00577029
0.00184883
0.00523276
0.00380879
0.0063217
0.00674824
0.00686988
0.00700093
0.00675792
0.00613795
0.00559065
0.00522577
0.00499823
0.00479439
0.00460441
0.0044384
0.00429455
0.00416656
0.00404818
0.00393592
0.00383065
0.00373773
0.00366664
0.00363096
0.00364936
0.00374564
0.0039448
0.0042635
0.00470342
0.00525372
0.00587768
0.00642774
0.00676291
0.00690725
0.00690778
0.00679985
0.00655746
0.00590851
0.00504874
0.00171805
0.00252546
0.00301661
0.00358241
0.00188937
0.00192573
0.0020926
0.00214593
0.00212374
0.00200247
0.00186829
0.00174912
0.00164657
0.00155679
0.00147914
0.00141083
0.00134913
0.00129231
0.00123929
0.00118943
0.00114238
0.00109806
0.0010566
0.00101832
0.000983823
0.00095403
0.000930396
0.000915173
0.000911711
0.000924747
0.000960131
0.00102223
0.00112052
0.00125522
0.00140127
0.00152863
0.00161132
0.00162184
0.00157476
0.00152976
0.00141009
)
;

boundaryField
{
    floor
    {
        type            compressible::alphatWallFunction;
        Prt             0.85;
        value           nonuniform List<scalar> 
29
(
9.5074e-05
6.89826e-05
8.30871e-05
8.60232e-05
8.08797e-05
7.26015e-05
6.27786e-05
5.14611e-05
2.92831e-05
2.07811e-05
2.13131e-05
2.27878e-05
2.25734e-05
2.13675e-05
2.35425e-05
2.98298e-05
3.94776e-05
5.17259e-05
5.3014e-05
4.80002e-05
4.79995e-05
7.56876e-05
8.50171e-05
0.000145567
9.50729e-05
6.89818e-05
9.9729e-05
0.000138476
0.000155682
)
;
    }
    ceiling
    {
        type            compressible::alphatWallFunction;
        Prt             0.85;
        value           nonuniform List<scalar> 
43
(
0.000344832
0.00040662
0.000476519
0.000262819
0.000267591
0.000289318
0.000296224
0.000293351
0.000277599
0.000260046
0.00024434
0.000230732
0.000218742
0.000208309
0.000199079
0.000190699
0.000182943
0.000175672
0.000168801
0.000162289
0.000156127
0.000150338
0.000144971
0.000140115
0.000135905
0.000132556
0.000130393
0.000129903
0.000131759
0.00013678
0.00014554
0.000159275
0.000177882
0.000197804
0.000214988
0.000226061
0.000227468
0.000221172
0.00021513
0.000198989
0.000700652
0.000805455
0.000674669
)
;
    }
    sWall
    {
        type            compressible::alphatWallFunction;
        Prt             0.85;
        value           uniform 0.00034373;
    }
    nWall
    {
        type            compressible::alphatWallFunction;
        Prt             0.85;
        value           nonuniform List<scalar> 6(0.000169081 0.000195226 0.000225055 0.00025707 0.000239837 0.00019863);
    }
    sideWalls
    {
        type            empty;
    }
    glass1
    {
        type            compressible::alphatWallFunction;
        Prt             0.85;
        value           nonuniform List<scalar> 9(0.000223522 0.00023505 0.000308349 0.000494288 0.000533261 0.000561944 0.000591572 0.000629959 0.00069193);
    }
    glass2
    {
        type            compressible::alphatWallFunction;
        Prt             0.85;
        value           nonuniform List<scalar> 2(0.000229673 0.000253051);
    }
    sun
    {
        type            compressible::alphatWallFunction;
        Prt             0.85;
        value           nonuniform List<scalar> 
14
(
0.000228655
0.000255788
0.000280135
0.00027512
0.00023664
0.000200025
0.000164154
0.000144403
0.000129462
0.00011773
0.000109675
0.000104266
0.000100374
9.75159e-05
)
;
    }
    heatsource1
    {
        type            compressible::alphatWallFunction;
        Prt             0.85;
        value           nonuniform List<scalar> 3(0.000179242 0.000159844 0.000169492);
    }
    heatsource2
    {
        type            compressible::alphatWallFunction;
        Prt             0.85;
        value           nonuniform List<scalar> 4(0.000104153 7.60992e-05 7.60983e-05 0.000116665);
    }
    Table_master
    {
        type            compressible::alphatWallFunction;
        Prt             0.85;
        value           nonuniform List<scalar> 9(6.30407e-05 4.81951e-05 4.16244e-05 3.79263e-05 3.51021e-05 3.22756e-05 2.90694e-05 3.27376e-05 7.74282e-05);
    }
    Table_slave
    {
        type            compressible::alphatWallFunction;
        Prt             0.85;
        value           nonuniform List<scalar> 9(0.000132033 0.000134805 0.000138797 0.000143483 0.000148611 0.000154167 0.000158933 0.000160443 0.000158019);
    }
    inlet
    {
        type            fixedValue;
        value           uniform 1.94e-05;
    }
    outlet
    {
        type            zeroGradient;
    }
}


// ************************************************************************* //
