/*--------------------------------*- C++ -*----------------------------------*\
  =========                 |
  \\      /  F ield         | OpenFOAM: The Open Source CFD Toolbox
   \\    /   O peration     | Website:  https://openfoam.org
    \\  /    A nd           | Version:  6
     \\/     M anipulation  |
\*---------------------------------------------------------------------------*/
FoamFile
{
    version     2.0;
    format      ascii;
    class       volScalarField;
    location    "150";
    object      epsilon;
}
// * * * * * * * * * * * * * * * * * * * * * * * * * * * * * * * * * * * * * //

dimensions      [0 2 -3 0 0 0 0];

internalField   nonuniform List<scalar> 
459
(
0.00098289
0.00139925
0.00186852
0.00176045
0.00108853
0.000640801
0.00034693
0.000234424
0.000168573
0.000126976
0.000103009
8.88352e-05
7.95321e-05
7.31565e-05
6.80076e-05
2.77128e-05
4.63129e-05
5.10745e-05
4.29496e-05
3.18563e-05
2.15213e-05
1.28543e-05
3.47102e-06
1.77309e-06
1.85582e-06
2.10105e-06
2.06378e-06
1.86373e-06
2.23471e-06
3.60123e-06
6.72406e-06
1.29888e-05
1.38285e-05
1.07759e-05
0.00115261
0.00233491
0.00454501
0.00650186
0.00608048
0.00397624
0.00172306
0.000643899
0.00026529
0.000122948
7.8001e-05
6.84039e-05
6.96467e-05
7.22484e-05
7.28765e-05
8.81563e-05
3.60703e-05
7.80101e-05
9.10738e-05
6.7091e-05
5.23724e-05
4.43439e-05
3.01206e-05
1.53568e-05
6.83155e-06
4.46394e-06
4.29934e-06
4.23589e-06
3.20103e-06
2.25702e-06
2.76266e-06
1.0146e-05
2.58753e-05
4.9643e-05
6.61039e-05
3.56454e-05
0.0027238
0.00429406
0.00414165
0.00403832
0.00426779
0.00412933
0.00355102
0.00268027
0.00086692
0.000243029
0.000102787
7.66904e-05
7.85846e-05
8.75587e-05
9.75918e-05
0.000108968
0.000123094
0.000206311
0.000179068
0.00010482
8.73131e-05
8.29379e-05
8.34062e-05
2.16143e-05
1.08172e-05
7.56789e-06
6.08167e-06
5.09606e-06
4.22908e-06
3.37892e-06
4.35841e-06
3.7761e-05
8.55344e-05
0.000117659
0.0001559
4.93208e-05
0.0124377
0.0101114
0.00747391
0.00555127
0.00441352
0.00385218
0.00345014
0.00295545
0.00197939
0.000550172
0.000161272
9.45552e-05
8.87183e-05
9.74114e-05
0.000113652
0.000142339
0.000197359
0.000294807
0.000161515
9.01426e-05
7.85384e-05
8.2929e-05
9.67987e-05
0.000124268
0.00017832
0.000189839
0.000207341
0.000229297
0.000255149
0.0002854
0.00031328
0.000322477
0.000307722
0.000202213
0.000171076
0.000319268
0.000239656
0.0158924
0.0132457
0.00830204
0.00544382
0.0040332
0.00340198
0.00308298
0.0027725
0.00213473
0.000790423
0.000235062
0.000116988
9.85101e-05
9.91161e-05
0.000101879
0.000103536
0.000104182
9.99561e-05
7.90036e-05
7.05638e-05
7.03254e-05
7.52839e-05
8.37585e-05
9.51236e-05
0.000108511
0.000122428
0.000140398
0.000163135
0.00019067
0.000222434
0.000256538
0.000284351
0.000295402
0.000278117
0.000237156
0.000248842
0.000307758
0.000452918
0.000318176
0.000381534
0.0188235
0.0168426
0.00843907
0.00453317
0.00320709
0.00276317
0.0025993
0.00243853
0.0019798
0.000822207
0.000270988
0.000135436
0.000114378
0.000117488
0.000122072
0.000122041
0.000115845
0.000105053
9.30965e-05
8.49838e-05
8.19857e-05
8.38777e-05
8.95079e-05
9.81222e-05
0.000109768
0.00012569
0.00014796
0.000177827
0.000215687
0.00026082
0.000311947
0.000368843
0.000433398
0.000514791
0.000600517
0.000629035
0.000606152
0.000567657
0.000460984
0.000595361
0.022225
0.0214918
0.00865403
0.00289932
0.00234535
0.00219668
0.00215965
0.00208463
0.00171229
0.000774883
0.000276929
0.00014785
0.000131936
0.000142275
0.000153188
0.00015729
0.000152595
0.000140794
0.000126164
0.000113211
0.000104776
0.000101591
0.000103045
0.000108653
0.000119077
0.00013649
0.000163634
0.000202689
0.000254472
0.000317923
0.000392166
0.00048324
0.000612765
0.000822242
0.00115876
0.00159605
0.00184572
0.00159227
0.00104556
0.000930059
0.0272417
0.0298462
0.0186747
0.00277261
0.00187743
0.00185103
0.00183374
0.00176924
0.00145494
0.000709888
0.000285371
0.000168844
0.000159151
0.00017721
0.000194558
0.000203089
0.000200716
0.000188776
0.000171389
0.00015347
0.000138791
0.000129127
0.000124723
0.000125682
0.00013338
0.000150997
0.000182795
0.000232791
0.000302455
0.000387345
0.000475632
0.000553802
0.000618057
0.000678857
0.000753335
0.000838236
0.000926638
0.0010309
0.00115694
0.00101679
0.036938
0.0582277
0.0711504
0.0116621
0.00207773
0.0017909
0.00166126
0.00155264
0.00126904
0.000674114
0.000350267
0.00024023
0.000220769
0.00023455
0.000250808
0.000258905
0.000256124
0.00024331
0.00022381
0.000202057
0.000181896
0.000165671
0.000154379
0.000148667
0.000150511
0.00016359
0.000193628
0.000247969
0.000333671
0.0004531
0.000598066
0.000749784
0.000888795
0.000998964
0.00106983
0.0011348
0.00124178
0.0014444
0.00174822
0.00138218
0.167006
0.0437609
0.00392803
0.00202554
0.00166719
0.0014969
0.00118981
0.000742632
0.0004935
0.000384863
0.000345688
0.000334985
0.000333163
0.000329102
0.000318425
0.00030077
0.000278041
0.000253143
0.000228941
0.000207605
0.000190499
0.000178586
0.000173213
0.000176738
0.000193232
0.000228865
0.000292544
0.000395928
0.000550345
0.000743907
0.000961941
0.00119595
0.00143873
0.00167669
0.00178681
0.00155712
0.00168134
0.00142092
0.0324945
0.00459013
0.00235052
0.0018588
0.00167702
0.00153407
0.00120916
0.000884893
0.000687889
0.000579375
0.000519779
0.000482862
0.000454358
0.000427
0.000397941
0.000366857
0.00033476
0.000303153
0.000273526
0.000247093
0.000224743
0.000207156
0.000195081
0.000189696
0.000193118
0.000209123
0.000244201
0.000308071
0.000410099
0.000550696
0.000724081
0.000916944
0.00110475
0.00124719
0.00126856
0.00112766
0.00132559
0.00114055
0.0036585
0.00622975
0.0104322
0.00153307
0.00162379
0.00208344
0.00224613
0.00217415
0.00182076
0.00147767
0.00121192
0.00101062
0.000853889
0.000732165
0.000635134
0.000555205
0.000487801
0.000430044
0.000380067
0.000336623
0.000298861
0.0002662
0.000238256
0.000214813
0.00019585
0.000181625
0.000172828
0.000170845
0.000178247
0.000199462
0.000240677
0.000316887
0.00044536
0.000619502
0.000804173
0.000941824
0.000960351
0.000878912
0.000805451
0.000630848
)
;

boundaryField
{
    floor
    {
        Cmu             0.09;
        kappa           0.41;
        E               9.8;
        type            epsilonWallFunction;
        value           nonuniform List<scalar> 
29
(
6.80076e-05
2.77128e-05
4.63129e-05
5.10745e-05
4.29496e-05
3.18563e-05
2.15213e-05
1.28543e-05
3.47102e-06
1.77309e-06
1.85582e-06
2.10105e-06
2.06378e-06
1.86373e-06
2.23471e-06
3.60123e-06
6.72406e-06
1.29888e-05
1.38285e-05
1.07759e-05
1.07759e-05
3.56454e-05
4.93208e-05
0.000239656
6.80076e-05
2.77128e-05
7.80101e-05
0.000206311
0.000294807
)
;
    }
    ceiling
    {
        Cmu             0.09;
        kappa           0.41;
        E               9.8;
        type            epsilonWallFunction;
        value           nonuniform List<scalar> 
43
(
0.0036585
0.00622975
0.0104322
0.00153307
0.00162379
0.00208344
0.00224613
0.00217415
0.00182076
0.00147767
0.00121192
0.00101062
0.000853889
0.000732165
0.000635134
0.000555205
0.000487801
0.000430044
0.000380067
0.000336623
0.000298861
0.0002662
0.000238256
0.000214813
0.00019585
0.000181625
0.000172828
0.000170845
0.000178247
0.000199462
0.000240677
0.000316887
0.00044536
0.000619502
0.000804173
0.000941824
0.000960351
0.000878912
0.000805451
0.000630848
0.036938
0.0582277
0.0324945
)
;
    }
    sWall
    {
        Cmu             0.09;
        kappa           0.41;
        E               9.8;
        type            epsilonWallFunction;
        value           uniform 0.0036585;
    }
    nWall
    {
        Cmu             0.09;
        kappa           0.41;
        E               9.8;
        type            epsilonWallFunction;
        value           nonuniform List<scalar> 6(0.000381534 0.000595361 0.000930059 0.00142092 0.00114055 0.000630848);
    }
    sideWalls
    {
        type            empty;
    }
    glass1
    {
        Cmu             0.09;
        kappa           0.41;
        E               9.8;
        type            epsilonWallFunction;
        value           nonuniform List<scalar> 9(0.00098289 0.00115261 0.0027238 0.0124377 0.0158924 0.0188235 0.022225 0.0272417 0.036938);
    }
    glass2
    {
        Cmu             0.09;
        kappa           0.41;
        E               9.8;
        type            epsilonWallFunction;
        value           nonuniform List<scalar> 2(0.00101679 0.00138218);
    }
    sun
    {
        Cmu             0.09;
        kappa           0.41;
        E               9.8;
        type            epsilonWallFunction;
        value           nonuniform List<scalar> 
14
(
0.00098289
0.00139925
0.00186852
0.00176045
0.00108853
0.000640801
0.00034693
0.000234424
0.000168573
0.000126976
0.000103009
8.88352e-05
7.95321e-05
7.31565e-05
)
;
    }
    heatsource1
    {
        Cmu             0.09;
        kappa           0.41;
        E               9.8;
        type            epsilonWallFunction;
        value           nonuniform List<scalar> 3(0.000452918 0.000318176 0.000381534);
    }
    heatsource2
    {
        Cmu             0.09;
        kappa           0.41;
        E               9.8;
        type            epsilonWallFunction;
        value           nonuniform List<scalar> 4(8.81563e-05 3.60703e-05 3.60703e-05 0.000123094);
    }
    Table_master
    {
        Cmu             0.09;
        kappa           0.41;
        E               9.8;
        type            epsilonWallFunction;
        value           nonuniform List<scalar> 9(2.16143e-05 1.08172e-05 7.56789e-06 6.08167e-06 5.09606e-06 4.22908e-06 3.37892e-06 4.35841e-06 3.7761e-05);
    }
    Table_slave
    {
        Cmu             0.09;
        kappa           0.41;
        E               9.8;
        type            epsilonWallFunction;
        value           nonuniform List<scalar> 9(0.00017832 0.000189839 0.000207341 0.000229297 0.000255149 0.0002854 0.00031328 0.000322477 0.000307722);
    }
    inlet
    {
        type            turbulentMixingLengthDissipationRateInlet;
        mixingLength    0.01;
        phi             phi;
        k               k;
        value           uniform 3.77336e-06;
    }
    outlet
    {
        type            zeroGradient;
    }
}


// ************************************************************************* //
