/*--------------------------------*- C++ -*----------------------------------*\
  =========                 |
  \\      /  F ield         | OpenFOAM: The Open Source CFD Toolbox
   \\    /   O peration     | Website:  https://openfoam.org
    \\  /    A nd           | Version:  6
     \\/     M anipulation  |
\*---------------------------------------------------------------------------*/
FoamFile
{
    version     2.0;
    format      ascii;
    class       volScalarField;
    location    "150";
    object      nut;
}
// * * * * * * * * * * * * * * * * * * * * * * * * * * * * * * * * * * * * * //

dimensions      [0 2 -1 0 0 0 0];

internalField   nonuniform List<scalar> 
459
(
0.00140569
0.00158129
0.00174133
0.00170676
0.00145404
0.0012187
0.000993314
0.000871674
0.000780936
0.000710557
0.00066272
0.000630834
0.000608014
0.000591322
0.000577108
0.00042782
0.00050767
0.000524514
0.000495054
0.000448084
0.000393166
0.000331048
0.000213865
0.000171108
0.000173749
0.000181095
0.000180007
0.000173989
0.000184841
0.000216746
0.000266939
0.000332473
0.000339431
0.0003123
0.00148215
0.00276509
0.00439513
0.0060994
0.00650825
0.00592663
0.00470368
0.00334558
0.00267952
0.00265239
0.0027198
0.00254143
0.00224026
0.00185567
0.00132978
0.000629258
0.000467176
0.000604037
0.00115332
0.00134815
0.00147211
0.00132545
0.00102652
0.000642336
0.000412102
0.000358529
0.000404286
0.000438597
0.000349194
0.000248747
0.000224739
0.000302966
0.000662912
0.00105239
0.00120752
0.000465312
0.00197562
0.00256584
0.00292079
0.00346687
0.00444244
0.00525556
0.00558931
0.00539959
0.00407018
0.00325086
0.00339995
0.0033048
0.00287184
0.00234411
0.00175954
0.0011967
0.000703289
0.000835389
0.00234376
0.00216096
0.00184073
0.00148478
0.00115534
0.000393777
0.000312663
0.000277578
0.000258072
0.000243305
0.000228646
0.000212173
0.000231012
0.000474429
0.00112181
0.00148209
0.00136828
0.000518468
0.00327575
0.00370262
0.00363711
0.00355136
0.0037957
0.00441432
0.00511799
0.0056038
0.00528792
0.00414802
0.00402813
0.00419312
0.0037832
0.00315422
0.00242889
0.00171609
0.00118126
0.000940929
0.00226141
0.00244387
0.00225952
0.00192341
0.0015401
0.00113133
0.00079565
0.000812417
0.000836644
0.000865186
0.00089655
0.000930671
0.000960065
0.000969397
0.000954414
0.00124704
0.0016583
0.00222794
0.000878332
0.00355457
0.00444026
0.00418681
0.00385443
0.00380589
0.00419283
0.00488614
0.00558976
0.00575324
0.00496364
0.00473145
0.00526205
0.00529303
0.00507588
0.00480389
0.00449936
0.00421377
0.00402589
0.00406276
0.00396906
0.00384382
0.00373007
0.00365095
0.00359865
0.00358776
0.00366927
0.00377422
0.00388491
0.00398076
0.00404152
0.00405063
0.00398499
0.00386873
0.00371501
0.00333638
0.00300511
0.00246639
0.00108592
0.000965324
0.00102543
0.00376088
0.00492469
0.00442355
0.00387213
0.00375759
0.0040885
0.00478968
0.00559102
0.00593198
0.00536946
0.00520904
0.00588228
0.00615521
0.00615592
0.0061102
0.00602178
0.00586956
0.00566291
0.00542981
0.00518111
0.00497276
0.00483274
0.00474906
0.00469951
0.00467351
0.00467376
0.00469392
0.00471772
0.00472037
0.00467955
0.00459136
0.00448109
0.00439623
0.004385
0.00440315
0.00428773
0.0039874
0.00329869
0.00252285
0.00118946
0.00397502
0.00487559
0.00381673
0.0036634
0.00371472
0.00408405
0.00480272
0.00562365
0.00597024
0.00553254
0.0053819
0.00607415
0.00644525
0.00653344
0.00657145
0.00655996
0.00646847
0.00629214
0.00605636
0.00580413
0.00558154
0.00541285
0.00529133
0.0051965
0.00511534
0.0050522
0.00501152
0.00498005
0.00492593
0.0048138
0.00463544
0.00444074
0.00433156
0.00440667
0.00467168
0.00493832
0.00481881
0.00415441
0.00345488
0.00137987
0.00425409
0.00473694
0.00388568
0.00348653
0.00391778
0.00431279
0.00493328
0.00564705
0.0059453
0.00560234
0.00541204
0.00594114
0.00633845
0.00646644
0.00653854
0.00655989
0.00650781
0.00637435
0.0061773
0.00595417
0.00574688
0.00558342
0.00546804
0.00538807
0.00532864
0.00528673
0.00526565
0.00525704
0.00522343
0.00509907
0.0048232
0.0043958
0.00389857
0.00343774
0.00307402
0.00275645
0.00245395
0.00220122
0.0019978
0.00142166
0.0047086
0.00548003
0.00690182
0.00367407
0.00424723
0.00490878
0.0052795
0.00578536
0.00600195
0.00567817
0.00534276
0.00551961
0.00586842
0.00603198
0.00610298
0.0061179
0.00607752
0.00597737
0.00582455
0.0056419
0.00546113
0.00531153
0.00521225
0.00517251
0.00519289
0.00526414
0.00537061
0.00549849
0.00563061
0.00572487
0.00571227
0.00554222
0.00522406
0.0047703
0.00422486
0.00371066
0.00329985
0.00303235
0.00287816
0.0015748
0.0109258
0.00560405
0.00416566
0.00570179
0.00587415
0.00613495
0.00621149
0.00578592
0.00537153
0.00523534
0.00527256
0.00529279
0.00527328
0.00522646
0.00515774
0.0050657
0.00494989
0.00481685
0.00468071
0.00455977
0.00447316
0.00444052
0.00448318
0.0046188
0.00485027
0.00515919
0.00551845
0.0059019
0.0062621
0.00649487
0.00651488
0.00638521
0.00618212
0.00597799
0.005717
0.00538213
0.00496019
0.00158935
0.0045123
0.00328677
0.00545597
0.00582407
0.00592752
0.00603724
0.00582358
0.00528705
0.00481444
0.00449956
0.00430325
0.00412746
0.00396366
0.00382052
0.00369647
0.00358608
0.00348396
0.00338711
0.00329629
0.00321611
0.00315471
0.00312378
0.00313936
0.00322192
0.00339293
0.00366669
0.00404462
0.00451737
0.00505333
0.00552571
0.00581345
0.00593732
0.00593773
0.00584503
0.00563672
0.00507884
0.00433976
0.00147691
0.00217868
0.00260181
0.00308984
0.00163024
0.0016617
0.00180569
0.00185149
0.00183144
0.00172627
0.00161024
0.0015073
0.00141878
0.00134131
0.00127431
0.00121536
0.00116211
0.00111307
0.0010673
0.00102426
0.000983658
0.000945407
0.000909621
0.000876591
0.000846819
0.000821102
0.000800691
0.00078752
0.000784468
0.000795606
0.000825959
0.000879279
0.000963694
0.0010794
0.00120484
0.00131423
0.00138523
0.00139422
0.00135371
0.00131498
0.0012122
)
;

boundaryField
{
    floor
    {
        type            nutkWallFunction;
        Cmu             0.09;
        kappa           0.41;
        E               9.8;
        value           nonuniform List<scalar> 
29
(
6.94806e-05
5.04107e-05
6.07036e-05
6.28467e-05
5.90935e-05
5.30509e-05
4.5879e-05
3.76144e-05
2.14125e-05
1.51984e-05
1.55857e-05
1.66618e-05
1.65045e-05
1.56231e-05
1.72111e-05
2.18021e-05
2.8845e-05
3.77832e-05
3.87236e-05
3.50682e-05
3.50681e-05
5.52686e-05
6.20777e-05
0.000106283
6.94805e-05
5.04107e-05
7.28601e-05
0.000101155
0.000113744
)
;
    }
    ceiling
    {
        type            nutkWallFunction;
        Cmu             0.09;
        kappa           0.41;
        E               9.8;
        value           nonuniform List<scalar> 
43
(
0.000252834
0.00029808
0.000349328
0.000192729
0.000196238
0.000212175
0.000217216
0.00021501
0.000203399
0.000190498
0.000178968
0.000168983
0.000160189
0.000152538
0.000145768
0.000139621
0.000133932
0.000128598
0.000123558
0.000118781
0.000114262
0.000110016
0.000106081
0.000102519
9.94315e-05
9.69737e-05
9.53846e-05
9.5018e-05
9.63676e-05
0.00010003
0.000106425
0.000116454
0.000130041
0.000144587
0.000157134
0.000165217
0.000166239
0.000161633
0.000157214
0.00014543
0.000514236
0.000590632
0.000494489
)
;
    }
    sWall
    {
        type            nutkWallFunction;
        Cmu             0.09;
        kappa           0.41;
        E               9.8;
        value           uniform 0.000252894;
    }
    nWall
    {
        type            nutkWallFunction;
        Cmu             0.09;
        kappa           0.41;
        E               9.8;
        value           nonuniform List<scalar> 6(0.000123706 0.000142776 0.000164576 0.000188157 0.00017556 0.000145441);
    }
    sideWalls
    {
        type            empty;
    }
    glass1
    {
        type            nutkWallFunction;
        Cmu             0.09;
        kappa           0.41;
        E               9.8;
        value           nonuniform List<scalar> 9(0.000167699 0.000176372 0.000231036 0.000369232 0.000398009 0.000419148 0.000440963 0.000469214 0.00051484);
    }
    glass2
    {
        type            nutkWallFunction;
        Cmu             0.09;
        kappa           0.41;
        E               9.8;
        value           nonuniform List<scalar> 2(0.000169367 0.000186606);
    }
    sun
    {
        type            nutkWallFunction;
        Cmu             0.09;
        kappa           0.41;
        E               9.8;
        value           nonuniform List<scalar> 
14
(
0.000167503
0.000187253
0.000205045
0.000201236
0.000172975
0.000146163
0.000119939
0.000105508
9.45938e-05
8.60246e-05
8.01414e-05
7.6191e-05
7.33489e-05
7.12622e-05
)
;
    }
    heatsource1
    {
        type            nutkWallFunction;
        Cmu             0.09;
        kappa           0.41;
        E               9.8;
        value           nonuniform List<scalar> 3(0.000130753 0.000116612 0.000123698);
    }
    heatsource2
    {
        type            nutkWallFunction;
        Cmu             0.09;
        kappa           0.41;
        E               9.8;
        value           nonuniform List<scalar> 4(7.59952e-05 5.55116e-05 5.55115e-05 8.51312e-05);
    }
    Table_master
    {
        type            nutkWallFunction;
        Cmu             0.09;
        kappa           0.41;
        E               9.8;
        value           nonuniform List<scalar> 9(4.5968e-05 3.51363e-05 3.03421e-05 2.76433e-05 2.55823e-05 2.35197e-05 2.11803e-05 2.385e-05 5.64419e-05);
    }
    Table_slave
    {
        type            nutkWallFunction;
        Cmu             0.09;
        kappa           0.41;
        E               9.8;
        value           nonuniform List<scalar> 9(9.63783e-05 9.84022e-05 0.000101318 0.000104739 0.000108483 0.000112539 0.000116017 0.000117117 0.000115344);
    }
    inlet
    {
        type            calculated;
        value           uniform 3.3541e-05;
    }
    outlet
    {
        type            calculated;
        value           nonuniform List<scalar> 2(0.00217868 0.00260181);
    }
}


// ************************************************************************* //
