/*--------------------------------*- C++ -*----------------------------------*\
  =========                 |
  \\      /  F ield         | OpenFOAM: The Open Source CFD Toolbox
   \\    /   O peration     | Website:  https://openfoam.org
    \\  /    A nd           | Version:  6
     \\/     M anipulation  |
\*---------------------------------------------------------------------------*/
FoamFile
{
    version     2.0;
    format      ascii;
    class       surfaceScalarField;
    location    "150";
    object      phi;
}
// * * * * * * * * * * * * * * * * * * * * * * * * * * * * * * * * * * * * * //

dimensions      [1 0 -1 0 0 0 0];

internalField   nonuniform List<scalar> 
852
(
-0.00358197
0.00363529
-0.00384009
0.00025845
-0.00327229
-0.000567451
-0.00296678
-0.000305357
-0.00322357
0.000256888
-0.00353571
0.000312235
-0.00354207
6.45359e-06
-0.003316
-0.000225971
-0.00287178
-0.000444121
-0.00234672
-0.000524955
-0.00184922
-0.000497394
-0.00140234
-0.000446761
-0.000986212
-0.000416022
-0.0005353
-0.000450803
-0.00053161
-0.000419618
0.000424293
-0.000196758
-0.000222777
0.000176406
-0.000373078
0.000431926
-0.000255436
0.00050924
-7.72363e-05
0.000354952
0.000154362
-4.74299e-05
0.000402423
-0.000400058
0.000352549
-0.000540719
0.000140634
-0.000571777
3.10503e-05
-0.000505873
-6.58924e-05
-0.000351721
-0.000154123
-5.3947e-05
-0.000297727
0.000383784
-0.000437686
0.000623804
-0.00023997
0.000776067
-0.000152208
0.000927941
-0.000151823
0.00087088
5.7096e-05
0.00087699
-0.00068748
0.00447348
0.000874731
-0.0013031
0.00197176
-0.00166419
0.00172969
-6.30741e-05
0.00077168
0.00121501
-0.000571113
0.00165517
-0.00185713
0.00129257
-0.00258761
0.000504588
-0.00252865
-0.000502993
-0.00225439
-0.000799117
-0.00194272
-0.000808964
-0.00161274
-0.000776632
-0.0012417
-0.00078695
-0.000840738
-0.000851658
-0.000455811
-0.000916427
0.000282746
-0.0007385
0.000282805
0.000840633
-0.000405469
0.000644187
-2.62477e-05
0.000266111
5.08164e-06
0.000152907
-0.000142154
0.000270388
-0.000194644
0.000306855
0.000117963
0.000241354
0.000467982
0.000271835
0.000322081
0.000259745
0.000152749
0.000219912
7.09225e-05
0.00016646
-1.23924e-05
0.000139233
-0.000126835
0.000139731
-0.000298145
0.000223383
-0.000521249
0.000191638
-0.000208114
0.000259481
-0.000219926
0.00050902
-0.000401286
0.000499953
6.62154e-05
0.00139111
0.00594685
-0.00125644
0.00821536
-0.00357135
0.00818117
-0.00162977
0.0071489
0.000969407
0.00560558
0.00275849
0.00376539
0.00349547
0.00171582
0.00334219
-0.000307119
0.00252754
-0.00165817
0.000848105
-0.00192745
-0.000529767
-0.00193523
-0.000801084
-0.0018647
-0.000847062
-0.00174293
-0.000908612
-0.00159153
-0.00100295
-0.0014341
-0.00107375
-0.0011445
-0.001028
-0.0008616
-0.000809899
0.000418503
-0.00103306
0.000197001
-0.00103483
6.93104e-06
-0.000968999
-0.000207903
-0.000778543
-0.000385024
-0.000109772
-0.000550737
0.000358437
0.000680734
0.000833704
0.000904853
0.000892696
0.000766106
0.000468222
-5.27543e-05
-0.000260599
-0.000200494
-0.000279972
-0.000764897
0.000163153
-0.00103243
0.000333776
0.000380482
0.00791495
-0.00893812
0.00988956
-0.00554589
0.00943989
-0.00118003
0.00834613
0.00206325
0.00687903
0.00422567
0.00510376
0.0052708
0.00318878
0.00525717
0.00134265
0.00437363
-0.000458871
0.00264951
-0.00140954
0.000420929
-0.0018172
-0.000393337
-0.00203013
-0.00063403
-0.00218429
-0.000754346
-0.00233864
-0.000848494
-0.00251491
-0.000897392
-0.00269553
-0.000847281
-0.00300715
-0.000549885
-0.00270259
-0.000289828
-0.00227557
-8.43557e-06
-0.00213254
5.40637e-05
-0.00204651
-7.90075e-05
-0.00201392
-0.000240404
-0.00202234
-0.000376505
-0.00215695
-0.000416034
-0.00183948
-0.000317525
-0.00153202
-0.000307511
-0.00118848
-0.000343593
-0.000787502
-0.000401037
-0.000315431
-0.000472126
0.000220835
-0.000536323
0.000771949
-0.000551171
0.00126863
-0.000496735
0.00162385
-0.000355285
0.00142226
-7.82898e-05
0.00115261
0.000432879
0.000646057
0.00084041
0.00104657
0.00441685
-0.013065
0.00562474
-0.00675371
0.0056327
-0.0011879
0.0053093
0.00238676
0.00466698
0.00486809
0.00368651
0.00625133
0.00249294
0.00645074
0.00124433
0.00562217
1.07809e-05
0.00388292
-0.000975833
0.00140747
-0.00154918
0.00018008
-0.0018761
-0.000306998
-0.00210701
-0.000523331
-0.00230412
-0.000651276
-0.00248624
-0.000715168
-0.00264784
-0.000685574
-0.00267318
-0.00052444
-0.00262661
-0.000336299
-0.00243935
-0.000195605
-0.0022317
-0.000153487
-0.00209116
-0.000219449
-0.00200812
-0.000323339
-0.00196483
-0.000419699
-0.00191356
-0.000467201
-0.00175088
-0.000480096
-0.0015379
-0.000520391
-0.00128859
-0.000592804
-0.00100012
-0.000689399
-0.000673334
-0.000798818
-0.000310336
-0.000899225
9.17763e-05
-0.000953188
0.000508009
-0.000912873
0.000894723
-0.000741901
0.00120031
-0.000383782
0.00148287
0.00015042
0.00168995
0.000633431
0.00201637
0.000720266
0.00122104
0.000795227
-0.000354072
0.001575
-0.000303241
0.00137043
-0.0140873
0.00195009
-0.00733327
0.00254713
-0.00178482
0.00226378
0.00267024
0.00201848
0.00511351
0.00164563
0.00662424
0.0011365
0.00695986
0.00054105
0.00621753
-6.93374e-05
0.00449314
-0.000725096
0.00206319
-0.00121361
0.000668667
-0.00152614
5.64128e-06
-0.00173658
-0.000312778
-0.00190558
-0.000482157
-0.00205185
-0.000568785
-0.00216391
-0.000573396
-0.00218946
-0.000498778
-0.00213666
-0.000388994
-0.00202547
-0.00030669
-0.00189784
-0.000281012
-0.00180118
-0.000316003
-0.00174171
-0.000382702
-0.00170769
-0.000453607
-0.00166521
-0.000509576
-0.00158614
-0.000559058
-0.00147886
-0.000627566
-0.00135097
-0.000720584
-0.00120595
-0.000834319
-0.00104708
-0.00095759
-0.000876363
-0.00106985
-0.000689147
-0.00114031
-0.000469799
-0.00113212
-0.000197361
-0.00101423
0.000187133
-0.000768155
0.000779748
-0.000442068
0.00158875
-0.000175428
0.00230928
-1.18923e-07
0.00266402
0.000440618
0.00275497
0.00148416
0.00250826
-0.000522163
-0.0131596
-0.000154714
-0.00770061
7.40663e-07
-0.00194015
-0.000648095
0.00331922
-0.000496224
0.00496175
-0.000241602
0.00636967
-0.000114062
0.00683229
-0.00012419
0.00622755
-0.000235608
0.00460441
-0.000534867
0.00236243
-0.000819209
0.000953093
-0.00104151
0.000228062
-0.00120264
-0.000151527
-0.00132698
-0.000357688
-0.00142851
-0.00046712
-0.00150035
-0.000501437
-0.0015233
-0.000475696
-0.00149283
-0.000419353
-0.0014297
-0.0003697
-0.00136059
-0.000350005
-0.00131107
-0.000365412
-0.00128913
-0.000404526
-0.0012894
-0.000453224
-0.00129659
-0.000502268
-0.00130057
-0.00055497
-0.00130597
-0.000622058
-0.00132028
-0.000706169
-0.00135181
-0.000802691
-0.00140876
-0.000900544
-0.00149512
-0.000983398
-0.00160302
-0.00103231
-0.00170688
-0.00102815
-0.00176923
-0.000951758
-0.00174387
-0.000793367
-0.00159339
-0.000592384
-0.00126825
-0.000500361
-0.000536019
-0.000732119
0.000913256
-0.00100842
0.00189486
0.000502673
0.00446222
-0.00295516
-0.00974556
-0.00435028
-0.0063054
-0.00386372
-0.00242661
-0.00344597
0.00290159
-0.00255841
0.00407427
-0.00167127
0.00548257
-0.000977636
0.00613863
-0.000501594
0.00575142
-0.000209678
0.00431239
-0.000177551
0.00233031
-0.000276056
0.0010517
-0.000393697
0.000345834
-0.000493462
-5.16217e-05
-0.000572873
-0.000278134
-0.000639644
-0.000400205
-0.000689869
-0.000451069
-0.000713993
-0.000451432
-0.000708916
-0.000424295
-0.000685234
-0.00039325
-0.000660051
-0.00037506
-0.000649482
-0.000375855
-0.000661472
-0.000392413
-0.000696244
-0.00041833
-0.000749787
-0.000448605
-0.000821538
-0.0004831
-0.000919736
-0.000523744
-0.0010571
-0.000568691
-0.00125137
-0.000608314
-0.00152654
-0.000625283
-0.00191111
-0.000598731
-0.0024295
-0.00051382
-0.00308532
-0.000372219
-0.00384381
-0.000193114
-0.00463165
-5.34516e-06
-0.00537895
0.00015512
-0.0060894
0.000210311
-0.00688022
5.89342e-05
-0.00756921
-0.000319203
-0.00616042
-0.000905896
-0.00138429
-0.00924536
-0.0155524
-0.0102425
-0.00773638
-0.00611734
-0.00122351
-0.00402039
0.00197738
-0.00253875
0.00400095
-0.00137515
0.004975
-0.00050189
0.00487809
0.000176917
0.00363351
0.000483618
0.00202365
0.000550456
0.000984969
0.000522705
0.00037373
0.000465963
5.27907e-06
0.000406581
-0.000218588
0.000347049
-0.000340506
0.00029158
-0.000395434
0.00024771
-0.000407399
0.00021909
-0.000395517
0.000201725
-0.000375733
0.000186023
-0.000359212
0.000161519
-0.000351211
0.000121007
-0.000351765
6.10438e-05
-0.000358233
-1.97257e-05
-0.000367705
-0.000123584
-0.000379113
-0.000256459
-0.000390743
-0.00042642
-0.000398609
-0.000641352
-0.000393267
-0.000908261
-0.000358265
-0.00123189
-0.000274998
-0.00161048
-0.000135139
-0.0020334
5.07863e-05
-0.00250727
0.000280849
-0.00305172
0.000539189
-0.00364228
0.000745766
-0.0042689
0.000837035
-0.00501851
0.000808638
-0.00572979
0.000392165
-0.00483672
-0.00179887
-0.00589374
-0.00834054
0.00102037
-0.00622639
-0.00333761
-0.00430251
5.3552e-05
-0.0026858
0.00238426
-0.00127184
0.00356103
-4.8718e-05
0.00365494
0.000959165
0.00262561
0.00147711
0.00150578
0.00169781
0.000764381
0.00175928
0.000312409
0.00173384
3.08955e-05
0.00166389
-0.000148459
0.00157506
-0.000251493
0.00148126
-0.000301438
0.0013919
-0.00031785
0.00131215
-0.00031558
0.00124187
-0.000305274
0.00117664
-0.000293815
0.00111016
-0.000284567
0.00103677
-0.000278215
0.00095255
-0.000273865
0.000855161
-0.000270171
0.000742469
-0.00026628
0.00061322
-0.000261358
0.000468714
-0.00025397
0.000315779
-0.000240203
0.000168398
-0.00021076
4.38509e-05
-0.000150331
-4.86024e-05
-4.25702e-05
-0.000117616
0.000119908
-0.000167386
0.000330719
-0.000185124
0.000557021
-0.000164482
0.000725215
-6.9049e-05
0.000741693
0.000278895
0.000460785
0.000997798
-0.000326654
0.00121611
-0.00201708
-0.00460596
-0.00178006
0.00279828
-0.00354993
-0.00156767
-0.00340246
-9.38559e-05
-0.00227037
0.0012522
-0.000741007
0.00203169
0.000831307
0.00208262
0.00206609
0.00139085
0.00276336
0.000808591
0.00310408
0.000423768
0.00323341
0.000183223
0.00323478
2.96778e-05
0.00315384
-6.73322e-05
0.00302936
-0.000126823
0.00288668
-0.000158543
0.00274137
-0.000172326
0.00260193
-0.000175925
0.00247127
-0.000174404
0.00234856
-0.000170903
0.00223093
-0.00016674
0.00211508
-0.000162183
0.0019983
-0.000156905
0.00187879
-0.000150496
0.00175565
-0.000142978
0.00162945
-0.000135005
0.00150334
-0.000127715
0.00138465
-0.000121368
0.0012861
-0.000112075
0.0012242
-8.82963e-05
0.00121523
-3.34696e-05
0.00128457
5.07057e-05
0.00144793
0.000167483
0.00170057
0.000304509
0.00201905
0.000406847
0.00235917
0.000401679
0.00262372
0.000196342
0.0025806
-0.000283428
0.00169675
-0.00113311
-0.00282509
-0.00287167
-0.00437179
-0.00157679
-0.00315211
-0.00325371
-0.00200873
1.62984e-05
0.00209406
0.00348118
0.00428675
0.00470797
0.00488901
0.00491678
0.00484787
0.00471981
0.00456045
0.00438774
0.00421194
0.00403819
0.00386852
0.00370361
0.00354388
0.00339008
0.00324335
0.0031048
0.00297492
0.00285301
0.00273814
0.00263321
0.00255264
0.00252738
0.00258661
0.00276276
0.00307594
0.00349139
0.00390164
0.00410669
0.00383232
0.00270857
)
;

boundaryField
{
    floor
    {
        type            calculated;
        value           nonuniform List<scalar> 
29
(
0
0
0
0
0
0
0
0
0
0
0
0
0
0
0
0
0
0
0
0
-6.09187e-06
-1.41415e-05
-2.17779e-05
-1.99197e-05
-3.58038e-06
-4.59359e-06
-1.07865e-05
-1.39801e-05
-1.46423e-05
)
;
    }
    ceiling
    {
        type            calculated;
        value           nonuniform List<scalar> 
43
(
5.40366e-06
3.95085e-06
3.36549e-06
7.74168e-06
7.81917e-06
7.29063e-06
6.70759e-06
4.88714e-06
3.79693e-06
3.11379e-06
2.65538e-06
2.31971e-06
2.04891e-06
1.75506e-06
1.41638e-06
1.03071e-06
5.96174e-07
1.12694e-07
-4.17305e-07
-9.88976e-07
-1.59584e-06
-2.23091e-06
-2.88785e-06
-3.5617e-06
-4.24884e-06
-4.94578e-06
-5.64631e-06
-6.33713e-06
-6.99339e-06
-7.57771e-06
-8.05104e-06
-8.36722e-06
-8.50241e-06
-8.50401e-06
-8.4443e-06
-8.41937e-06
-8.57019e-06
-8.91149e-06
-9.23967e-06
-9.447e-06
3.21387e-06
1.71235e-06
2.22972e-06
)
;
    }
    sWall
    {
        type            calculated;
        value           uniform -0.000172536;
    }
    nWall
    {
        type            calculated;
        value           nonuniform List<scalar> 6(-5.09484e-05 -5.64198e-05 -5.89852e-05 -7.15486e-05 -8.39954e-05 -0.000106937);
    }
    sideWalls
    {
        type            empty;
        value           nonuniform 0();
    }
    glass1
    {
        type            calculated;
        value           nonuniform List<scalar> 9(-5.3073e-05 -0.000150474 -0.000216578 -0.000233189 -0.000289834 -0.000348062 -0.000405451 -0.000458803 -0.000503337);
    }
    glass2
    {
        type            calculated;
        value           nonuniform List<scalar> 2(-0.000313718 -0.000327166);
    }
    sun
    {
        type            calculated;
        value           uniform 0;
    }
    heatsource1
    {
        type            calculated;
        value           nonuniform List<scalar> 3(2.05165e-07 2.0539e-07 2.05842e-07);
    }
    heatsource2
    {
        type            calculated;
        value           nonuniform List<scalar> 4(5.14413e-08 5.15337e-08 0 0);
    }
    Table_master
    {
        type            calculated;
        value           nonuniform List<scalar> 9(-1.54646e-07 -1.54659e-07 -1.54653e-07 -1.54665e-07 -1.54697e-07 -1.54739e-07 -1.54828e-07 -1.54943e-07 -1.54812e-07);
    }
    Table_slave
    {
        type            calculated;
        value           nonuniform List<scalar> 9(1.53669e-07 1.53774e-07 1.53868e-07 1.53972e-07 1.54097e-07 1.54174e-07 1.54096e-07 1.53939e-07 1.53831e-07);
    }
    inlet
    {
        type            calculated;
        value           uniform -0.000416136;
    }
    outlet
    {
        type            calculated;
        value           nonuniform List<scalar> 2(0.00303894 0.00149628);
    }
}


// ************************************************************************* //
