/*--------------------------------*- C++ -*----------------------------------*\
  =========                 |
  \\      /  F ield         | OpenFOAM: The Open Source CFD Toolbox
   \\    /   O peration     | Website:  https://openfoam.org
    \\  /    A nd           | Version:  6
     \\/     M anipulation  |
\*---------------------------------------------------------------------------*/
FoamFile
{
    version     2.0;
    format      ascii;
    class       volScalarField;
    location    "150";
    object      T;
}
// * * * * * * * * * * * * * * * * * * * * * * * * * * * * * * * * * * * * * //

dimensions      [0 0 0 1 0 0 0];

internalField   nonuniform List<scalar> 
459
(
303.373
303.168
303.129
302.901
302.655
302.513
302.43
302.394
302.369
302.349
302.336
302.329
302.324
302.323
302.329
302.182
302.174
302.176
302.179
302.173
302.155
302.128
302.009
301.915
301.874
301.847
301.825
301.807
301.797
301.816
301.845
301.87
301.878
301.904
303.803
303.993
304.08
303.907
303.634
303.234
302.834
302.603
302.484
302.416
302.384
302.37
302.361
302.353
302.341
302.319
302.242
302.224
302.21
302.203
302.217
302.223
302.181
302.125
302.05
301.984
301.931
301.881
301.845
301.817
301.8
301.854
301.953
301.965
301.937
301.926
304.308
304.386
304.389
304.351
304.198
303.926
303.591
303.227
302.705
302.505
302.437
302.416
302.406
302.395
302.38
302.359
302.333
302.285
302.286
302.298
302.316
302.32
302.301
302.111
302.055
302.016
301.983
301.952
301.918
301.875
301.838
302.019
302.159
302.035
301.982
301.949
304.768
304.56
304.511
304.479
304.392
304.212
303.94
303.589
303.119
302.634
302.494
302.463
302.453
302.444
302.43
302.411
302.391
302.379
302.365
302.38
302.4
302.413
302.422
302.427
302.432
302.434
302.437
302.44
302.443
302.444
302.441
302.435
302.423
302.389
302.311
302.211
302.123
304.622
304.287
304.252
304.308
304.336
304.257
304.054
303.735
303.291
302.746
302.554
302.512
302.506
302.503
302.496
302.485
302.472
302.462
302.457
302.459
302.466
302.472
302.475
302.476
302.477
302.478
302.479
302.48
302.48
302.479
302.475
302.465
302.45
302.424
302.373
302.303
302.233
302.228
302.252
302.366
304.493
304.049
304.054
304.176
304.273
304.247
304.077
303.772
303.331
302.807
302.611
302.563
302.561
302.563
302.561
302.554
302.544
302.534
302.528
302.525
302.525
302.524
302.523
302.522
302.519
302.517
302.516
302.514
302.511
302.508
302.502
302.492
302.477
302.453
302.417
302.369
302.328
302.304
302.284
302.3
304.359
303.928
304.004
304.166
304.251
304.223
304.054
303.747
303.313
302.854
302.666
302.622
302.621
302.629
302.633
302.63
302.622
302.612
302.604
302.596
302.591
302.586
302.581
302.574
302.568
302.561
302.555
302.549
302.543
302.537
302.53
302.522
302.511
302.497
302.482
302.471
302.467
302.45
302.366
302.345
304.215
303.889
303.995
304.168
304.208
304.162
303.997
303.704
303.304
302.911
302.737
302.692
302.692
302.705
302.714
302.716
302.71
302.701
302.69
302.68
302.67
302.66
302.65
302.639
302.627
302.614
302.602
302.589
302.578
302.571
302.566
302.565
302.566
302.57
302.579
302.59
302.602
302.614
302.619
302.631
304.07
303.79
303.777
304.089
304.131
304.076
303.925
303.665
303.315
302.996
302.855
302.805
302.795
302.803
302.811
302.814
302.81
302.8
302.789
302.776
302.762
302.749
302.735
302.719
302.701
302.683
302.663
302.643
302.625
302.613
302.61
302.62
302.639
302.663
302.689
302.718
302.747
302.77
302.789
302.851
303.375
303.911
304.01
303.978
303.859
303.648
303.345
303.132
303.026
302.976
302.954
302.944
302.94
302.934
302.926
302.914
302.9
302.885
302.868
302.851
302.833
302.814
302.793
302.771
302.746
302.721
302.694
302.669
302.649
302.64
302.641
302.652
302.668
302.686
302.701
302.698
302.683
302.697
303.631
303.85
303.889
303.888
303.809
303.641
303.427
303.297
303.222
303.178
303.15
303.128
303.109
303.091
303.073
303.053
303.033
303.013
302.991
302.97
302.948
302.926
302.902
302.877
302.85
302.821
302.79
302.758
302.726
302.696
302.676
302.665
302.663
302.666
302.669
302.666
302.664
302.688
303.753
303.686
303.689
303.81
303.825
303.826
303.79
303.639
303.536
303.469
303.424
303.391
303.366
303.342
303.317
303.291
303.264
303.237
303.208
303.18
303.151
303.123
303.096
303.069
303.042
303.015
302.988
302.96
302.93
302.898
302.862
302.823
302.782
302.745
302.717
302.698
302.685
302.676
302.668
302.689
)
;

boundaryField
{
    floor
    {
        type            wallHeatTransfer;
        Tinf            uniform 305.2;
        alphaWall       uniform 0.24;
        value           nonuniform List<scalar> 
29
(
302.805
302.792
302.721
302.711
302.734
302.767
302.805
302.856
302.978
303.034
302.998
302.957
302.946
302.953
302.912
302.837
302.748
302.658
302.654
302.713
302.713
302.552
302.528
302.501
302.805
302.792
302.702
302.656
302.708
)
;
    }
    ceiling
    {
        type            wallHeatTransfer;
        Tinf            uniform 303.2;
        alphaWall       uniform 0.24;
        value           nonuniform List<scalar> 
43
(
303.719
303.66
303.667
303.763
303.778
303.782
303.749
303.609
303.512
303.448
303.405
303.375
303.351
303.328
303.305
303.282
303.257
303.233
303.207
303.182
303.157
303.132
303.108
303.085
303.062
303.04
303.017
302.992
302.966
302.936
302.903
302.866
302.826
302.789
302.76
302.741
302.73
302.722
302.716
302.739
304.042
303.773
303.616
)
;
    }
    sWall
    {
        type            wallHeatTransfer;
        Tinf            uniform 315.2;
        alphaWall       uniform 0.36;
        value           uniform 304.769;
    }
    nWall
    {
        type            wallHeatTransfer;
        Tinf            uniform 307.2;
        alphaWall       uniform 0.36;
        value           nonuniform List<scalar> 6(303.12 302.987 302.954 303.206 303.227 303.313);
    }
    sideWalls
    {
        type            empty;
    }
    glass1
    {
        type            wallHeatTransfer;
        Tinf            uniform 315.2;
        alphaWall       uniform 4.3;
        value           nonuniform List<scalar> 9(310.86 310.898 310.438 309.49 309.221 309.017 308.81 308.566 308.24);
    }
    glass2
    {
        type            wallHeatTransfer;
        Tinf            uniform 307.2;
        alphaWall       uniform 4.3;
        value           nonuniform List<scalar> 2(305.497 305.489);
    }
    sun
    {
        type            wallHeatTransfer;
        Tinf            uniform 305.2;
        alphaWall       uniform 0.24;
        value           nonuniform List<scalar> 
14
(
303.53
303.327
303.28
303.071
302.869
302.771
302.74
302.741
302.748
302.758
302.767
302.776
302.784
302.792
)
;
    }
    heatsource1
    {
        type            fixedGradient;
        gradient        uniform 0;
    }
    heatsource2
    {
        type            fixedGradient;
        gradient        uniform 0;
    }
    Table_master
    {
        type            zeroGradient;
    }
    Table_slave
    {
        type            zeroGradient;
    }
    inlet
    {
        type            fixedValue;
        value           uniform 290.15;
    }
    outlet
    {
        type            zeroGradient;
    }
}


// ************************************************************************* //
