/*--------------------------------*- C++ -*----------------------------------*\
  =========                 |
  \\      /  F ield         | OpenFOAM: The Open Source CFD Toolbox
   \\    /   O peration     | Website:  https://openfoam.org
    \\  /    A nd           | Version:  6
     \\/     M anipulation  |
\*---------------------------------------------------------------------------*/
FoamFile
{
    version     2.0;
    format      ascii;
    class       volVectorField;
    location    "150";
    object      U;
}
// * * * * * * * * * * * * * * * * * * * * * * * * * * * * * * * * * * * * * //

dimensions      [0 1 -1 0 0 0 0];

internalField   nonuniform List<vector> 
459
(
(-0.0322228 0.0794644 0)
(-0.174506 -0.00462448 0)
(-0.139918 -0.0179037 0)
(-0.130305 -0.000338147 0)
(-0.135648 0.00662821 0)
(-0.148306 0.000135266 0)
(-0.155552 -0.00800646 0)
(-0.148405 -0.013506 0)
(-0.133005 -0.0178698 0)
(-0.11205 -0.0186352 0)
(-0.0902003 -0.0171048 0)
(-0.0691596 -0.0153407 0)
(-0.0486132 -0.0148914 0)
(-0.0343567 -0.017178 0)
(-0.0556979 -0.0207716 0)
(0.0430063 0.00793694 0)
(-0.0196183 -0.0108778 0)
(-0.00163161 -0.0140476 0)
(0.0106661 -0.0111915 0)
(0.0195628 -0.00671424 0)
(0.0212112 0.000368025 0)
(0.0136722 0.00913639 0)
(-0.0130145 0.00866461 0)
(-0.0237794 -5.90975e-05 0)
(-0.0254405 -0.00375213 0)
(-0.0233575 -0.00642464 0)
(-0.0175395 -0.00938265 0)
(-0.00734761 -0.0138793 0)
(0.00809026 -0.0184138 0)
(0.0199633 -0.0121528 0)
(0.030498 -0.00836768 0)
(0.0363289 -0.00869747 0)
(0.0457426 -0.00255106 0)
(-0.0158119 0.0215588 0)
(0.232195 0.19481 0)
(-0.014031 -0.0495145 0)
(0.0890413 -0.0589501 0)
(0.0741247 -0.00836273 0)
(0.0575579 0.0330283 0)
(0.00813248 0.0399891 0)
(-0.0593259 0.0130799 0)
(-0.103522 -0.0131528 0)
(-0.112419 -0.0276926 0)
(-0.103461 -0.0326026 0)
(-0.0905431 -0.0310264 0)
(-0.0765629 -0.0287541 0)
(-0.0611087 -0.028348 0)
(-0.0447514 -0.0309531 0)
(-0.0301943 -0.0356401 0)
(-0.0134319 -0.0376942 0)
(0.0208177 0.00157413 0)
(0.111733 -0.000305187 0)
(0.0362443 -0.00239896 0)
(0.0118947 -0.00529056 0)
(0.00373776 -0.00640924 0)
(0.00476187 -0.00420592 0)
(0.014194 0.00795814 0)
(0.0164555 0.0177252 0)
(0.00866289 0.0149505 0)
(0.00943701 0.00756408 0)
(0.0107576 0.00308801 0)
(0.00827129 -0.00160353 0)
(0.00701279 -0.00677007 0)
(0.00909909 -0.0139706 0)
(0.00758058 -0.0215557 0)
(0.00424346 -0.0119048 0)
(0.0136409 -0.0102829 0)
(0.0156215 -0.0162275 0)
(0.0359585 -0.00625662 0)
(-0.0734653 0.0443209 0)
(0.512573 0.214386 0)
(0.328459 -0.00268192 0)
(0.332849 -0.0113399 0)
(0.338334 0.0514408 0)
(0.284625 0.101605 0)
(0.204827 0.120229 0)
(0.118568 0.108675 0)
(0.0321305 0.07057 0)
(-0.0599874 -0.00600462 0)
(-0.0814596 -0.0337669 0)
(-0.0840308 -0.0375408 0)
(-0.0820564 -0.0375046 0)
(-0.0775336 -0.0391968 0)
(-0.0713276 -0.0429976 0)
(-0.0645825 -0.0463919 0)
(-0.0590309 -0.044718 0)
(-0.0588519 -0.03602 0)
(0.0488627 0.00223366 0)
(-0.0476041 0.00565835 0)
(-0.0454868 0.00254122 0)
(-0.0434086 -0.00643501 0)
(-0.0391716 -0.0129429 0)
(-0.0337898 -0.0135772 0)
(0.021165 0.0195261 0)
(0.0228777 0.014537 0)
(0.0312206 0.00909667 0)
(0.0374038 0.00520914 0)
(0.0398743 0.00177499 0)
(0.0372558 -0.00235094 0)
(0.0299115 -0.00866263 0)
(0.00934341 -0.0174165 0)
(-0.0221825 -0.00494855 0)
(0.0087985 -0.00561299 0)
(-0.00898685 0.00407845 0)
(-0.0406915 0.0213258 0)
(-0.159515 0.0461282 0)
(0.701453 -0.328643 0)
(0.347541 -0.258605 0)
(0.382392 -0.124087 0)
(0.398141 0.0168138 0)
(0.344129 0.125909 0)
(0.263398 0.180443 0)
(0.178557 0.185304 0)
(0.0955724 0.15259 0)
(0.0131964 0.083198 0)
(-0.0516317 -0.00498742 0)
(-0.0723651 -0.0278905 0)
(-0.0833421 -0.033271 0)
(-0.0904462 -0.036752 0)
(-0.09658 -0.0399659 0)
(-0.103758 -0.0403954 0)
(-0.114149 -0.0329132 0)
(-0.126681 -0.00986942 0)
(-0.124087 0.0347315 0)
(-0.0983155 0.0113175 0)
(-0.0974942 0.00612658 0)
(-0.0897183 -0.00236616 0)
(-0.0867175 -0.0107989 0)
(-0.0877567 -0.0174471 0)
(-0.0908532 -0.0200518 0)
(-0.0866031 -0.0134113 0)
(-0.0727955 -0.0126479 0)
(-0.0584998 -0.0141926 0)
(-0.042445 -0.0165674 0)
(-0.0243512 -0.0195414 0)
(-0.00259196 -0.022562 0)
(0.0218402 -0.0231595 0)
(0.043479 -0.0207872 0)
(0.0625448 -0.016159 0)
(0.0694602 -0.00734942 0)
(0.0609514 0.0120216 0)
(0.0574955 0.0244538 0)
(-0.102355 0.0296329 0)
(0.676619 -0.518892 0)
(0.0955098 -0.288022 0)
(0.201624 -0.0548656 0)
(0.255616 0.104194 0)
(0.234341 0.202071 0)
(0.187108 0.251808 0)
(0.134377 0.255302 0)
(0.0791547 0.218869 0)
(0.0224648 0.145779 0)
(-0.0304053 0.0421317 0)
(-0.0575247 -0.00507991 0)
(-0.0748498 -0.0206802 0)
(-0.0858589 -0.027815 0)
(-0.0949054 -0.0327923 0)
(-0.103375 -0.036034 0)
(-0.11108 -0.0361852 0)
(-0.115387 -0.0304245 0)
(-0.1148 -0.0163612 0)
(-0.108614 -0.00550461 0)
(-0.100158 -0.00247432 0)
(-0.0923557 -0.00642669 0)
(-0.0877629 -0.0118755 0)
(-0.0856263 -0.0166426 0)
(-0.0838575 -0.0188245 0)
(-0.0791515 -0.0174498 0)
(-0.0709365 -0.018542 0)
(-0.0608936 -0.0211444 0)
(-0.0492567 -0.0248636 0)
(-0.0360622 -0.0292541 0)
(-0.0214189 -0.033267 0)
(-0.0052516 -0.035074 0)
(0.012582 -0.0324891 0)
(0.0290282 -0.0241887 0)
(0.0448091 -0.00824652 0)
(0.0606371 0.0157579 0)
(0.0800065 0.0353556 0)
(0.0566883 0.0418052 0)
(0.0910567 0.0394153 0)
(0.1082 0.0535386 0)
(-0.381124 -0.0264774 0)
(0.631011 -0.613048 0)
(-0.12549 -0.314752 0)
(0.0868847 -0.0502448 0)
(0.126368 0.115215 0)
(0.106491 0.223767 0)
(0.08459 0.284729 0)
(0.062133 0.294712 0)
(0.0358805 0.25962 0)
(0.00669646 0.183678 0)
(-0.0238359 0.0760239 0)
(-0.0435111 0.0192696 0)
(-0.0602314 -0.00625902 0)
(-0.0705061 -0.0175832 0)
(-0.0784777 -0.0237552 0)
(-0.0854189 -0.0267623 0)
(-0.0911743 -0.0263 0)
(-0.0941853 -0.022197 0)
(-0.0934958 -0.0164246 0)
(-0.0896418 -0.0115743 0)
(-0.0841647 -0.00998373 0)
(-0.0791395 -0.0119553 0)
(-0.0758686 -0.015534 0)
(-0.0741114 -0.0191813 0)
(-0.0726725 -0.021714 0)
(-0.0700787 -0.023226 0)
(-0.06597 -0.0257698 0)
(-0.0608112 -0.0295433 0)
(-0.0548482 -0.0343154 0)
(-0.0482656 -0.039618 0)
(-0.0412448 -0.0445441 0)
(-0.0337818 -0.0476687 0)
(-0.0255549 -0.0472904 0)
(-0.0162109 -0.0417958 0)
(-0.00317137 -0.0288963 0)
(0.020057 -0.0079606 0)
(0.0552632 0.0123143 0)
(0.0806461 0.0185489 0)
(0.10787 0.0268863 0)
(0.137096 0.0651307 0)
(-0.029932 0.0793109 0)
(0.523169 -0.594455 0)
(-0.217641 -0.331328 0)
(0.0217908 -0.0887346 0)
(0.0119216 0.143737 0)
(-0.0193498 0.227714 0)
(-0.0110444 0.290034 0)
(-0.00492219 0.305216 0)
(-0.00484668 0.273449 0)
(-0.00989208 0.198417 0)
(-0.0200576 0.0967717 0)
(-0.0298834 0.0356695 0)
(-0.0404057 0.00564019 0)
(-0.0487253 -0.00965172 0)
(-0.0544971 -0.017779 0)
(-0.0594139 -0.0220323 0)
(-0.0632905 -0.0229678 0)
(-0.0653951 -0.0209983 0)
(-0.0651666 -0.0177663 0)
(-0.062964 -0.0150014 0)
(-0.0598812 -0.0139855 0)
(-0.0571736 -0.0149916 0)
(-0.0556367 -0.017241 0)
(-0.0552745 -0.019894 0)
(-0.055532 -0.0223564 0)
(-0.055767 -0.024797 0)
(-0.055867 -0.0279689 0)
(-0.0561512 -0.0320761 0)
(-0.0569763 -0.0369563 0)
(-0.0587323 -0.0421494 0)
(-0.0617633 -0.0468853 0)
(-0.0661364 -0.0501636 0)
(-0.0713612 -0.0510138 0)
(-0.0761674 -0.0488396 0)
(-0.0778398 -0.0437912 0)
(-0.0723301 -0.0379151 0)
(-0.0585169 -0.0359011 0)
(-0.0425944 -0.0424784 0)
(-0.012563 -0.0445894 0)
(0.101004 0.0244014 0)
(-0.073095 0.161361 0)
(0.326312 -0.47349 0)
(-0.289604 -0.275868 0)
(-0.203419 -0.0967431 0)
(-0.101566 0.152873 0)
(-0.131373 0.205159 0)
(-0.0878901 0.264332 0)
(-0.0545251 0.2869 0)
(-0.0311691 0.263567 0)
(-0.0162793 0.196002 0)
(-0.00936412 0.103726 0)
(-0.00909966 0.04374 0)
(-0.0138848 0.0122562 0)
(-0.0193127 -0.00449869 0)
(-0.0228112 -0.0137392 0)
(-0.0260322 -0.0187211 0)
(-0.0286963 -0.0206373 0)
(-0.0303989 -0.0201901 0)
(-0.0308061 -0.0184983 0)
(-0.0300818 -0.0167999 0)
(-0.0288733 -0.0159449 0)
(-0.0279739 -0.0162274 0)
(-0.0279544 -0.0173913 0)
(-0.0289726 -0.0190272 0)
(-0.0308816 -0.0208224 0)
(-0.033524 -0.0228152 0)
(-0.03704 -0.02525 0)
(-0.041907 -0.0281391 0)
(-0.0487619 -0.0311681 0)
(-0.058476 -0.0337038 0)
(-0.0722357 -0.0348904 0)
(-0.0914241 -0.0338502 0)
(-0.116939 -0.0298318 0)
(-0.148271 -0.0221398 0)
(-0.18296 -0.0105253 0)
(-0.216883 0.00347078 0)
(-0.248189 0.0157362 0)
(-0.272684 0.0245549 0)
(-0.289529 0.0367005 0)
(-0.336997 0.0674015 0)
(-0.559899 0.126409 0)
(0.0423433 -0.324667 0)
(-0.595689 -0.246517 0)
(-0.751949 -0.195774 0)
(-0.189038 0.0560247 0)
(-0.223447 0.144613 0)
(-0.138506 0.212496 0)
(-0.0819629 0.245994 0)
(-0.0396531 0.234213 0)
(-0.00733407 0.176464 0)
(0.0152196 0.0963106 0)
(0.0242514 0.0455046 0)
(0.0247358 0.0163622 0)
(0.021676 -0.000676592 0)
(0.0191655 -0.01065 0)
(0.0164552 -0.0160037 0)
(0.0137888 -0.0183655 0)
(0.0115037 -0.0187306 0)
(0.00988566 -0.0179686 0)
(0.00893498 -0.016912 0)
(0.00832259 -0.0161563 0)
(0.00756327 -0.0159673 0)
(0.0062369 -0.0163074 0)
(0.00411673 -0.0170027 0)
(0.00112766 -0.0178834 0)
(-0.00282274 -0.0189077 0)
(-0.00780552 -0.0200276 0)
(-0.0141959 -0.021068 0)
(-0.0223214 -0.0215349 0)
(-0.0324783 -0.0206332 0)
(-0.0450224 -0.017561 0)
(-0.0603294 -0.0120673 0)
(-0.0778354 -0.00479649 0)
(-0.0964839 0.00303734 0)
(-0.118389 0.0089932 0)
(-0.144851 0.00942879 0)
(-0.172801 -0.000724633 0)
(-0.195445 -0.0290585 0)
(-0.207892 -0.0803328 0)
(-0.242588 -0.149725 0)
(-0.557635 -0.237187 0)
(-1.67031 -0.228152 0)
(-0.0831799 -0.123501 0)
(-0.232977 0.0439684 0)
(-0.148395 0.141064 0)
(-0.0839785 0.187653 0)
(-0.0290712 0.188278 0)
(0.0214494 0.137718 0)
(0.0543506 0.0789568 0)
(0.0711035 0.0403726 0)
(0.0767068 0.0171079 0)
(0.0766023 0.00274401 0)
(0.0737584 -0.00655097 0)
(0.0700243 -0.0119596 0)
(0.0658811 -0.0145946 0)
(0.0617784 -0.0154399 0)
(0.0580512 -0.0152714 0)
(0.0548146 -0.0146769 0)
(0.0519492 -0.0140557 0)
(0.0491888 -0.0136142 0)
(0.0462458 -0.013393 0)
(0.0429015 -0.0133338 0)
(0.0390241 -0.0133474 0)
(0.0345218 -0.0133742 0)
(0.0293307 -0.013343 0)
(0.0234345 -0.0131207 0)
(0.0170115 -0.0124182 0)
(0.010527 -0.0107002 0)
(0.00460959 -0.00728736 0)
(-0.000264737 -0.00169076 0)
(-0.00267979 0.00615223 0)
(-0.00536129 0.0161336 0)
(-0.00718925 0.0278491 0)
(-0.00815352 0.0388313 0)
(-0.00811315 0.0469144 0)
(-0.00615203 0.0511328 0)
(0.025656 0.0398168 0)
(0.113438 -0.0527719 0)
(-0.169472 -0.21852 0)
(-0.431876 0.0507949 0)
(0.00851643 -0.13172 0)
(-0.160402 -0.026353 0)
(-0.127473 0.0687817 0)
(-0.0673911 0.120543 0)
(0.00203486 0.12731 0)
(0.0647899 0.0870375 0)
(0.106199 0.0482476 0)
(0.129536 0.0218628 0)
(0.139315 0.00528261 0)
(0.141329 -0.00512268 0)
(0.138605 -0.0111999 0)
(0.13364 -0.0142933 0)
(0.127585 -0.0153479 0)
(0.12118 -0.0150911 0)
(0.114921 -0.0140575 0)
(0.109051 -0.0125987 0)
(0.1036 -0.0109221 0)
(0.0984603 -0.00913409 0)
(0.093475 -0.00726609 0)
(0.0885009 -0.00530491 0)
(0.0834358 -0.00322799 0)
(0.0782208 -0.00104353 0)
(0.0728444 0.00119292 0)
(0.067379 0.00337521 0)
(0.0620494 0.00543895 0)
(0.0572923 0.00760419 0)
(0.0537405 0.0105931 0)
(0.0522177 0.0152938 0)
(0.0534996 0.0211203 0)
(0.0583291 0.0277274 0)
(0.0670622 0.0349224 0)
(0.0789893 0.0404933 0)
(0.0921676 0.0410734 0)
(0.104021 0.03124 0)
(0.115031 0.000966281 0)
(0.146532 -0.0607887 0)
(-0.162129 -0.158988 0)
(0.251227 -0.130256 0)
(-0.196941 -0.0624588 0)
(-0.193575 0.117472 0)
(-0.0534115 -0.0103 0)
(-0.145774 0.0360016 0)
(-0.114178 0.0666516 0)
(-0.0551779 0.0934106 0)
(0.0545208 0.0945866 0)
(0.119682 0.070404 0)
(0.168459 0.0507523 0)
(0.197177 0.0373624 0)
(0.210137 0.0284928 0)
(0.213732 0.0223889 0)
(0.211741 0.0174256 0)
(0.206785 0.01301 0)
(0.200242 0.00890542 0)
(0.192876 0.00488318 0)
(0.185217 0.000739614 0)
(0.177591 -0.00366614 0)
(0.170146 -0.00840388 0)
(0.162921 -0.013493 0)
(0.15592 -0.0189208 0)
(0.149159 -0.024657 0)
(0.142675 -0.0306608 0)
(0.136521 -0.036877 0)
(0.130737 -0.0432148 0)
(0.125325 -0.0495184 0)
(0.120242 -0.0555423 0)
(0.115493 -0.0609219 0)
(0.111362 -0.0651173 0)
(0.108928 -0.0673835 0)
(0.109425 -0.065805 0)
(0.114117 -0.0590727 0)
(0.124381 -0.0490622 0)
(0.13993 -0.0396484 0)
(0.157664 -0.0351319 0)
(0.172399 -0.0398313 0)
(0.175351 -0.0532609 0)
(0.182211 -0.076558 0)
(-0.151525 -0.126203 0)
)
;

boundaryField
{
    floor
    {
        type            noSlip;
    }
    ceiling
    {
        type            noSlip;
    }
    sWall
    {
        type            noSlip;
    }
    nWall
    {
        type            noSlip;
    }
    sideWalls
    {
        type            empty;
    }
    glass1
    {
        type            noSlip;
    }
    glass2
    {
        type            noSlip;
    }
    sun
    {
        type            noSlip;
    }
    heatsource1
    {
        type            noSlip;
    }
    heatsource2
    {
        type            noSlip;
    }
    Table_master
    {
        type            noSlip;
    }
    Table_slave
    {
        type            noSlip;
    }
    inlet
    {
        type            fixedValue;
        value           uniform (0.1 0 0);
    }
    outlet
    {
        type            zeroGradient;
    }
}


// ************************************************************************* //
