/*--------------------------------*- C++ -*----------------------------------*\
  =========                 |
  \\      /  F ield         | OpenFOAM: The Open Source CFD Toolbox
   \\    /   O peration     | Website:  https://openfoam.org
    \\  /    A nd           | Version:  6
     \\/     M anipulation  |
\*---------------------------------------------------------------------------*/
FoamFile
{
    version     2.0;
    format      ascii;
    class       volScalarField;
    location    "2400";
    object      epsilon;
}
// * * * * * * * * * * * * * * * * * * * * * * * * * * * * * * * * * * * * * //

dimensions      [0 2 -3 0 0 0 0];

internalField   nonuniform List<scalar> 
459
(
0.000522332
0.000686442
0.00072733
0.000840595
0.000956936
0.00107678
0.001206
0.00133281
0.00142224
0.00145274
0.00140837
0.00128604
0.0010978
0.000875146
0.000662244
4.72398e-05
8.28423e-05
0.000117741
0.000116728
0.000105121
9.08767e-05
7.47028e-05
6.06862e-05
4.96183e-05
4.10203e-05
3.43065e-05
2.90065e-05
2.47827e-05
2.13681e-05
1.85221e-05
1.60404e-05
1.37363e-05
1.24912e-05
9.67324e-06
0.00131647
0.00186011
0.000650148
0.000632575
0.00066852
0.000725833
0.000808091
0.000908324
0.000996377
0.00104457
0.00103391
0.000961118
0.000835981
0.000686056
0.000572155
0.000718229
0.000140704
5.66001e-05
0.000133733
0.000142892
0.000130432
0.000111094
9.28663e-05
8.34475e-05
6.72717e-05
5.30775e-05
4.19017e-05
3.33304e-05
2.67815e-05
2.17708e-05
1.7944e-05
1.51203e-05
1.33753e-05
1.26508e-05
3.42616e-05
2.29572e-05
0.0023832
0.00448813
0.000815694
0.000613329
0.000651011
0.000742582
0.000873422
0.00102497
0.00115113
0.00121761
0.00120995
0.00113288
0.000998617
0.000840042
0.000695825
0.000628231
0.000773213
0.000408759
0.000300584
0.000229673
0.0001786
0.000140996
0.00011855
0.00021579
0.000147548
0.000104554
7.67267e-05
5.81357e-05
4.53253e-05
3.62632e-05
2.97497e-05
2.50916e-05
1.89678e-05
1.60143e-05
6.67679e-05
3.69416e-05
0.00382561
0.00920843
0.00130629
0.000643323
0.000661872
0.000798937
0.0010111
0.00123592
0.00139151
0.00145519
0.00142951
0.00132918
0.00116291
0.000973266
0.000803037
0.000688567
0.000668842
0.00126649
0.000718566
0.000433347
0.000290605
0.000209357
0.000159046
0.0001355
0.000307768
0.000230221
0.000183316
0.000151919
0.000128071
0.000108821
9.22325e-05
7.6811e-05
6.13319e-05
3.59433e-05
2.44082e-05
0.000117986
5.01805e-05
0.00578839
0.0162431
0.00259249
0.00082055
0.000740097
0.000943147
0.00132675
0.00162076
0.00176274
0.00178529
0.00171588
0.00156849
0.0013569
0.00111227
0.000873819
0.000675672
0.00053863
0.000482686
0.000392752
0.000309341
0.000242083
0.000190242
0.000151405
0.000125575
0.000120323
0.000110828
0.000101457
9.2327e-05
8.29888e-05
7.35356e-05
6.43443e-05
5.57652e-05
4.79493e-05
3.77854e-05
2.96724e-05
8.15252e-05
5.75756e-05
9.29819e-05
0.000158026
0.000221841
0.00848875
0.0239388
0.00579015
0.0016942
0.00126729
0.001622
0.00213096
0.00232154
0.00233736
0.00226177
0.00211904
0.00190281
0.00161643
0.00128892
0.00096752
0.000698618
0.00050899
0.000397458
0.00032568
0.000267193
0.000215703
0.000173191
0.000140769
0.00011897
0.000108078
0.000102823
9.92089e-05
9.50764e-05
8.92333e-05
8.07262e-05
6.99684e-05
5.91426e-05
4.94327e-05
4.09739e-05
3.68061e-05
5.72286e-05
5.98921e-05
7.16529e-05
0.000295647
0.000255869
0.0114957
0.0284652
0.0116789
0.00537898
0.00401799
0.00400874
0.00379453
0.00350011
0.00321341
0.00295162
0.00267917
0.00234862
0.00194573
0.00150183
0.00107644
0.000731649
0.000498324
0.000363747
0.000286534
0.000231524
0.000186444
0.000151335
0.000126878
0.000112764
0.000107695
0.000108108
0.000110396
0.000112747
0.000113924
0.000112091
0.00010322
9.10414e-05
7.91849e-05
6.92606e-05
6.69247e-05
7.92801e-05
0.000101999
0.000164401
0.000409155
0.000378723
0.0120758
0.0298012
0.0171827
0.0122909
0.00966141
0.0075309
0.00600327
0.00498916
0.00432993
0.0038579
0.00342042
0.00291363
0.00232349
0.00170464
0.00113759
0.000708507
0.000444298
0.000303483
0.000231006
0.000184808
0.000151025
0.000127932
0.000114583
0.000109609
0.000111289
0.000117567
0.000126961
0.000139155
0.000154329
0.000172401
0.000192109
0.000203963
0.000215578
0.000240171
0.000290053
0.000441265
0.000809676
0.00160397
0.00544776
0.00131456
0.0110798
0.0181541
0.0145858
0.011174
0.00878292
0.00728496
0.0063888
0.00585299
0.00546072
0.00501624
0.00438467
0.00353488
0.00259565
0.00171162
0.000973101
0.000521934
0.000320258
0.00022464
0.000173467
0.000141301
0.000120382
0.000108353
0.000103608
0.000104728
0.000110556
0.000120409
0.000134384
0.000153472
0.000179471
0.000215049
0.000263909
0.000331295
0.000424835
0.000565794
0.00077378
0.00105792
0.00138825
0.00168677
0.00191164
0.00105201
0.00372439
0.00656615
0.008418
0.00890359
0.0088916
0.00842398
0.00743596
0.00603807
0.00444023
0.00279161
0.00167757
0.00097062
0.000550133
0.000331309
0.000225872
0.000172319
0.000141814
0.000122566
0.000110258
0.000103379
0.000101019
0.000102457
0.000107206
0.000115185
0.0001268
0.000143027
0.000165567
0.000197165
0.000242116
0.000306508
0.00039797
0.000527066
0.000702201
0.00091812
0.0011484
0.00136342
0.00122207
0.000593585
0.00370236
0.00847789
0.00847973
0.00703149
0.00608742
0.0051024
0.00402286
0.00295989
0.0020143
0.0012572
0.000763505
0.000472462
0.000313054
0.000230935
0.000188766
0.000165244
0.00015023
0.0001395
0.000131409
0.000125344
0.00012141
0.000120045
0.000121531
0.000126325
0.000135155
0.000149073
0.000169593
0.000198935
0.000240319
0.000298162
0.000378514
0.000487982
0.000629476
0.000796473
0.000973388
0.00122714
0.000650098
0.000653274
0.00266351
0.00317942
0.00358968
0.00450794
0.00400147
0.00356361
0.00322671
0.00277518
0.00223451
0.00168416
0.00118692
0.000793617
0.000525445
0.000360498
0.00026251
0.000203163
0.000165644
0.000141065
0.000124925
0.000114871
0.000109507
0.000107983
0.000109637
0.000113802
0.000120452
0.000129775
0.000142171
0.000158321
0.000179358
0.000206823
0.000241786
0.000286324
0.000342973
0.000414972
0.000505549
0.000624894
0.000660479
0.000499287
0.000404205
0.000590215
)
;

boundaryField
{
    floor
    {
        Cmu             0.09;
        kappa           0.41;
        E               9.8;
        type            epsilonWallFunction;
        value           nonuniform List<scalar> 
29
(
0.000662244
4.72398e-05
8.28423e-05
0.000117741
0.000116728
0.000105121
9.08767e-05
7.47028e-05
6.06862e-05
4.96183e-05
4.10203e-05
3.43065e-05
2.90065e-05
2.47827e-05
2.13681e-05
1.85221e-05
1.60404e-05
1.37363e-05
1.24912e-05
9.67324e-06
9.67324e-06
2.29572e-05
3.69416e-05
5.01805e-05
0.000662244
4.72398e-05
5.66001e-05
0.000408759
0.00126649
)
;
    }
    ceiling
    {
        Cmu             0.09;
        kappa           0.41;
        E               9.8;
        type            epsilonWallFunction;
        value           nonuniform List<scalar> 
43
(
0.00266351
0.00317942
0.00358968
0.00450794
0.00400147
0.00356361
0.00322671
0.00277518
0.00223451
0.00168416
0.00118692
0.000793617
0.000525445
0.000360498
0.00026251
0.000203163
0.000165644
0.000141065
0.000124925
0.000114871
0.000109507
0.000107983
0.000109637
0.000113802
0.000120452
0.000129775
0.000142171
0.000158321
0.000179358
0.000206823
0.000241786
0.000286324
0.000342973
0.000414972
0.000505549
0.000624894
0.000660479
0.000499287
0.000404205
0.000590215
0.0110798
0.0181541
0.00370236
)
;
    }
    sWall
    {
        Cmu             0.09;
        kappa           0.41;
        E               9.8;
        type            epsilonWallFunction;
        value           uniform 0.00266351;
    }
    nWall
    {
        Cmu             0.09;
        kappa           0.41;
        E               9.8;
        type            epsilonWallFunction;
        value           nonuniform List<scalar> 6(0.000221841 0.000255869 0.000378723 0.000593585 0.000653274 0.000590215);
    }
    sideWalls
    {
        type            empty;
    }
    glass1
    {
        Cmu             0.09;
        kappa           0.41;
        E               9.8;
        type            epsilonWallFunction;
        value           nonuniform List<scalar> 9(0.000522332 0.00131647 0.0023832 0.00382561 0.00578839 0.00848875 0.0114957 0.0120758 0.0110798);
    }
    glass2
    {
        Cmu             0.09;
        kappa           0.41;
        E               9.8;
        type            epsilonWallFunction;
        value           nonuniform List<scalar> 2(0.00131456 0.00105201);
    }
    sun
    {
        Cmu             0.09;
        kappa           0.41;
        E               9.8;
        type            epsilonWallFunction;
        value           nonuniform List<scalar> 
14
(
0.000522332
0.000686442
0.00072733
0.000840595
0.000956936
0.00107678
0.001206
0.00133281
0.00142224
0.00145274
0.00140837
0.00128604
0.0010978
0.000875146
)
;
    }
    heatsource1
    {
        Cmu             0.09;
        kappa           0.41;
        E               9.8;
        type            epsilonWallFunction;
        value           nonuniform List<scalar> 3(9.29819e-05 0.000158026 0.000221841);
    }
    heatsource2
    {
        Cmu             0.09;
        kappa           0.41;
        E               9.8;
        type            epsilonWallFunction;
        value           nonuniform List<scalar> 4(0.000718229 0.000140704 0.000140704 0.000773213);
    }
    Table_master
    {
        Cmu             0.09;
        kappa           0.41;
        E               9.8;
        type            epsilonWallFunction;
        value           nonuniform List<scalar> 9(0.00021579 0.000147548 0.000104554 7.67267e-05 5.81357e-05 4.53253e-05 3.62632e-05 2.97497e-05 2.50916e-05);
    }
    Table_slave
    {
        Cmu             0.09;
        kappa           0.41;
        E               9.8;
        type            epsilonWallFunction;
        value           nonuniform List<scalar> 9(0.000307768 0.000230221 0.000183316 0.000151919 0.000128071 0.000108821 9.22325e-05 7.6811e-05 6.13319e-05);
    }
    inlet
    {
        type            turbulentMixingLengthDissipationRateInlet;
        mixingLength    0.01;
        phi             phi;
        k               k;
        value           uniform 0.000101881;
    }
    outlet
    {
        type            zeroGradient;
    }
}


// ************************************************************************* //
