/*--------------------------------*- C++ -*----------------------------------*\
  =========                 |
  \\      /  F ield         | OpenFOAM: The Open Source CFD Toolbox
   \\    /   O peration     | Website:  https://openfoam.org
    \\  /    A nd           | Version:  6
     \\/     M anipulation  |
\*---------------------------------------------------------------------------*/
FoamFile
{
    version     2.0;
    format      ascii;
    class       volScalarField;
    location    "100";
    object      alphat;
}
// * * * * * * * * * * * * * * * * * * * * * * * * * * * * * * * * * * * * * //

dimensions      [1 -1 -1 0 0 0 0];

internalField   nonuniform List<scalar> 
459
(
0.00166631
0.00187802
0.0020726
0.00199815
0.00169067
0.00150831
0.00129685
0.00111024
0.00101253
0.00093735
0.000876068
0.00082765
0.000786552
0.000748172
0.000711401
0.000633634
0.000793341
0.000679909
0.000609061
0.000563902
0.000513678
0.000465228
0.000422632
0.000389245
0.000364382
0.000345801
0.000331915
0.000319744
0.000307287
0.000298801
0.000331576
0.000546055
0.000668916
0.000552719
0.00169542
0.00295875
0.00423086
0.00561909
0.00644637
0.00640683
0.00601514
0.00513481
0.00414957
0.00383205
0.00380032
0.0036052
0.00319398
0.00262197
0.00185657
0.000718903
0.000563966
0.000732564
0.00243007
0.00210328
0.00176765
0.00144351
0.00121384
0.000853579
0.000821612
0.00079238
0.000772901
0.000758674
0.000730009
0.000701908
0.000682281
0.00064681
0.000772522
0.0013484
0.0017034
0.000688945
0.0023094
0.0031014
0.00350278
0.00392198
0.00466778
0.00547845
0.00608156
0.00629572
0.005945
0.00502514
0.00477004
0.00464767
0.00405663
0.0031978
0.00225434
0.00141045
0.000735599
0.000970743
0.00276782
0.00218472
0.00164028
0.00123592
0.000936296
0.000433193
0.000371105
0.00034599
0.000324612
0.000305321
0.000291396
0.0002843
0.000299468
0.000388615
0.00116622
0.00180525
0.00181014
0.000794421
0.00376434
0.00443031
0.00437857
0.00425597
0.00433703
0.00479252
0.00549482
0.00618793
0.0065723
0.00617999
0.00566894
0.00560984
0.00504302
0.00400912
0.00283926
0.00182289
0.0012185
0.00105151
0.00196127
0.00206244
0.00169519
0.00138401
0.00119151
0.00100585
0.000850523
0.000881956
0.000922515
0.000971842
0.00103113
0.00111237
0.00115092
0.00115378
0.00112164
0.00124832
0.00147828
0.00196003
0.00109428
0.00405566
0.00539868
0.00501117
0.00461862
0.0044562
0.00468536
0.00530315
0.00612631
0.00681701
0.00686065
0.00669501
0.00677711
0.00664706
0.00607104
0.00531351
0.00447649
0.0036845
0.00307707
0.00268974
0.00279852
0.00281022
0.00283049
0.0028239
0.00282071
0.00284756
0.00294453
0.00309847
0.00330629
0.00356499
0.00387595
0.00411219
0.0041342
0.00399356
0.00372347
0.00318697
0.00267701
0.00199415
0.00107811
0.000946956
0.00112035
0.00426477
0.00594349
0.00503831
0.00447005
0.00436644
0.0046088
0.00525081
0.00616066
0.00699008
0.00722717
0.00724453
0.00763169
0.00788301
0.00774407
0.00742827
0.00698354
0.00639546
0.00570842
0.00501325
0.00456141
0.00424216
0.00401005
0.00379761
0.00360779
0.00345327
0.00336641
0.00336653
0.00345723
0.00364279
0.0039364
0.00426358
0.00440964
0.00439906
0.00429721
0.00397809
0.00345937
0.00279562
0.00197704
0.00209616
0.00121894
0.00448215
0.00572701
0.00418123
0.00419831
0.004339
0.00465668
0.00533524
0.00628204
0.00712951
0.00742129
0.00749781
0.00796974
0.00849285
0.008654
0.00862064
0.00845305
0.00812144
0.00762589
0.00700935
0.006387
0.00583591
0.00533472
0.00486625
0.00442195
0.00400761
0.00366642
0.00344013
0.00335028
0.00342094
0.0037025
0.0040974
0.00435569
0.00443941
0.0045503
0.0046107
0.00426371
0.00373045
0.00320417
0.00282681
0.00149706
0.00476581
0.00540054
0.00433153
0.00404912
0.00465825
0.00502573
0.00562932
0.00648013
0.00724246
0.00754843
0.00762247
0.00798381
0.00851071
0.00885656
0.00899377
0.00899896
0.00885045
0.00853531
0.008077
0.00753752
0.00698094
0.00643805
0.00591032
0.00538222
0.00484269
0.00431181
0.00383433
0.00347308
0.0033074
0.00352715
0.00403145
0.0044202
0.00451603
0.00471117
0.00519601
0.00568576
0.00568757
0.00556377
0.00571969
0.00183634
0.00523259
0.00606486
0.007487
0.00429379
0.00515796
0.00588078
0.00624568
0.0068726
0.00748025
0.00774988
0.00769624
0.00774014
0.00800176
0.00831336
0.00851872
0.00860844
0.00857189
0.00839497
0.0080847
0.00767842
0.00722937
0.0067796
0.00634648
0.00592886
0.00551572
0.00508064
0.00454906
0.00392235
0.00331359
0.00327829
0.00390289
0.0045287
0.00437545
0.00397311
0.00364693
0.00341079
0.00320483
0.00289623
0.00261771
0.00173633
0.0116873
0.00607277
0.00523582
0.00693287
0.00714058
0.00748445
0.00786634
0.00793925
0.00760567
0.00733008
0.0072202
0.00723104
0.00726816
0.00729415
0.00727846
0.00719126
0.00701899
0.0067726
0.00648141
0.00617778
0.00588727
0.00562926
0.00541839
0.00525002
0.00505372
0.00462723
0.00352347
0.00276195
0.00330371
0.00475257
0.00520426
0.00501225
0.00467954
0.00423091
0.00372294
0.00321154
0.00271427
0.00152982
0.00488196
0.00389252
0.00650462
0.00702979
0.00723436
0.00740802
0.00749348
0.00709709
0.00652777
0.00604642
0.0056959
0.00545357
0.00525233
0.00511029
0.00502118
0.00496014
0.00489935
0.00482035
0.0047191
0.00460315
0.0044868
0.00438997
0.00433738
0.00434133
0.00434038
0.00410058
0.00325003
0.00209167
0.00201814
0.0037163
0.00475784
0.0047084
0.00475794
0.00476292
0.00451369
0.00420088
0.00338242
0.0015642
0.00245892
0.00287234
0.00330187
0.00186309
0.00190673
0.00203597
0.0020909
0.00209204
0.00199715
0.00185415
0.00172261
0.00160914
0.00151167
0.00142734
0.0013572
0.00129831
0.00124856
0.00120631
0.00117004
0.00113829
0.00110987
0.00108401
0.00106048
0.00103961
0.00102235
0.00100952
0.0009992
0.000982167
0.000946384
0.000901429
0.000911129
0.00114179
0.00131043
0.00144558
0.00159191
0.00169824
0.00173922
0.00168049
0.00156676
0.00143487
)
;

boundaryField
{
    floor
    {
        type            compressible::alphatWallFunction;
        Prt             0.85;
        value           nonuniform List<scalar> 
29
(
0.000100845
8.93434e-05
0.000112772
9.62066e-05
8.57092e-05
7.89397e-05
7.132e-05
6.38828e-05
5.72615e-05
5.20091e-05
4.80573e-05
4.50789e-05
4.28388e-05
4.08664e-05
3.88389e-05
3.74478e-05
4.27195e-05
7.61051e-05
9.45696e-05
7.71734e-05
7.71725e-05
9.75237e-05
0.000112903
0.000155469
0.000100844
8.93424e-05
0.00010393
0.000138116
0.000149492
)
;
    }
    ceiling
    {
        type            compressible::alphatWallFunction;
        Prt             0.85;
        value           nonuniform List<scalar> 
43
(
0.000336311
0.000388537
0.000441968
0.000259347
0.00026508
0.000281943
0.000289079
0.000289229
0.000276891
0.000258179
0.000240826
0.000225741
0.000212688
0.00020132
0.000191804
0.000183774
0.000176957
0.000171143
0.000166133
0.000161732
0.00015778
0.000154175
0.000150885
0.000147961
0.000145536
0.000143732
0.000142274
0.000139858
0.000134779
0.00012839
0.000129862
0.000162317
0.000185368
0.000203688
0.000223376
0.000237522
0.000242948
0.000235165
0.000220004
0.000202272
0.000674725
0.00077215
0.000633127
)
;
    }
    sWall
    {
        type            compressible::alphatWallFunction;
        Prt             0.85;
        value           uniform 0.000335189;
    }
    nWall
    {
        type            compressible::alphatWallFunction;
        Prt             0.85;
        value           nonuniform List<scalar> 6(0.000158832 0.000172476 0.000210287 0.000214676 0.000219277 0.000201899);
    }
    sideWalls
    {
        type            empty;
    }
    glass1
    {
        type            compressible::alphatWallFunction;
        Prt             0.85;
        value           nonuniform List<scalar> 9(0.000227972 0.000232005 0.00031096 0.000491314 0.000526355 0.000551334 0.00057717 0.000610722 0.000665595);
    }
    glass2
    {
        type            compressible::alphatWallFunction;
        Prt             0.85;
        value           nonuniform List<scalar> 2(0.000253506 0.000240428);
    }
    sun
    {
        type            compressible::alphatWallFunction;
        Prt             0.85;
        value           nonuniform List<scalar> 
14
(
0.00023322
0.00026115
0.00028657
0.000276931
0.000236499
0.000212116
0.000183422
0.000157691
0.000144015
0.000133398
0.000124675
0.000117731
0.000111798
0.000106222
)
;
    }
    heatsource1
    {
        type            compressible::alphatWallFunction;
        Prt             0.85;
        value           nonuniform List<scalar> 3(0.000153378 0.000134923 0.00015927);
    }
    heatsource2
    {
        type            compressible::alphatWallFunction;
        Prt             0.85;
        value           nonuniform List<scalar> 4(0.000102121 7.90946e-05 7.90936e-05 0.00010456);
    }
    Table_master
    {
        type            compressible::alphatWallFunction;
        Prt             0.85;
        value           nonuniform List<scalar> 9(5.90506e-05 4.92713e-05 4.52566e-05 4.18072e-05 3.86667e-05 3.63826e-05 3.5209e-05 3.76845e-05 5.19637e-05);
    }
    Table_slave
    {
        type            compressible::alphatWallFunction;
        Prt             0.85;
        value           nonuniform List<scalar> 9(0.000121183 0.000125684 0.000131464 0.000138453 0.000146798 0.000158139 0.000163455 0.000163834 0.000159364);
    }
    inlet
    {
        type            fixedValue;
        value           uniform 1.94e-05;
    }
    outlet
    {
        type            zeroGradient;
    }
}


// ************************************************************************* //
