/*--------------------------------*- C++ -*----------------------------------*\
  =========                 |
  \\      /  F ield         | OpenFOAM: The Open Source CFD Toolbox
   \\    /   O peration     | Website:  https://openfoam.org
    \\  /    A nd           | Version:  6
     \\/     M anipulation  |
\*---------------------------------------------------------------------------*/
FoamFile
{
    version     2.0;
    format      ascii;
    class       volScalarField;
    location    "100";
    object      epsilon;
}
// * * * * * * * * * * * * * * * * * * * * * * * * * * * * * * * * * * * * * //

dimensions      [0 2 -3 0 0 0 0];

internalField   nonuniform List<scalar> 
459
(
0.00104491
0.00149353
0.00200851
0.00179668
0.00108514
0.00076902
0.000487976
0.000306023
0.000232019
0.000184068
0.000150287
0.00012673
0.000108777
9.3618e-05
8.04776e-05
5.67659e-05
0.00011146
7.01731e-05
5.04889e-05
4.0093e-05
3.0309e-05
2.25199e-05
1.68835e-05
1.31871e-05
1.08138e-05
9.23773e-06
8.16522e-06
7.2972e-06
6.47612e-06
5.95172e-06
8.09888e-06
3.6111e-05
6.66873e-05
3.75657e-05
0.00110571
0.00249314
0.00397601
0.00498963
0.00498612
0.00393833
0.002457
0.0010318
0.000399505
0.000198688
0.000119743
9.21121e-05
8.37985e-05
7.98442e-05
7.47517e-05
8.30319e-05
4.00664e-05
8.77539e-05
0.000203283
7.31309e-05
5.14803e-05
4.35564e-05
3.27457e-05
1.76025e-05
1.39445e-05
1.11544e-05
9.39628e-06
8.10195e-06
7.0735e-06
6.24492e-06
5.81175e-06
8.74627e-06
2.73695e-05
9.08573e-05
0.000166344
7.28813e-05
0.00279294
0.00467745
0.00451743
0.0041341
0.0039663
0.00372816
0.0032308
0.00254662
0.00154236
0.000474752
0.000187484
0.000110728
9.28746e-05
9.08588e-05
9.11589e-05
9.19948e-05
8.89408e-05
0.000204197
0.000215655
8.90091e-05
6.78542e-05
6.13282e-05
5.70119e-05
1.81443e-05
1.14035e-05
9.23969e-06
7.62872e-06
6.34561e-06
5.51463e-06
5.11885e-06
5.97456e-06
1.30116e-05
0.000101429
0.00020614
0.000293708
0.000111725
0.0121549
0.0104147
0.00770513
0.00575746
0.00444261
0.00368689
0.00318901
0.00271703
0.00208968
0.00110285
0.000344474
0.000153718
0.000111179
0.000103829
0.000108421
0.000126844
0.000172359
0.000259771
0.000195487
9.30352e-05
6.69608e-05
6.88481e-05
8.00502e-05
0.000101148
0.000137508
0.000153313
0.000175439
0.000205089
0.000244916
0.000307363
0.000340096
0.000342458
0.000314501
0.000225633
0.00019734
0.000307849
0.000292526
0.0151792
0.013867
0.00846363
0.00548024
0.00400111
0.00326551
0.00286204
0.00254074
0.00209637
0.00127374
0.000482545
0.000207162
0.000135538
0.000116897
0.000108913
0.000101992
9.70032e-05
9.23016e-05
7.51466e-05
5.69902e-05
5.23198e-05
5.60867e-05
6.33664e-05
7.22977e-05
8.27872e-05
9.59981e-05
0.000115292
0.000142689
0.000180541
0.000233579
0.000281361
0.000296758
0.00027966
0.000228054
0.00018314
0.000196939
0.000232572
0.000279547
0.000189435
0.000313973
0.0176278
0.0172541
0.00809095
0.00419032
0.00301116
0.00259304
0.00239568
0.00222415
0.00190882
0.0012056
0.000505071
0.000238302
0.000162422
0.000146409
0.000143287
0.000136718
0.000122306
0.0001026
8.27013e-05
6.87097e-05
6.29433e-05
6.36246e-05
6.69154e-05
7.14872e-05
7.80004e-05
8.89307e-05
0.000107302
0.000135906
0.000177847
0.000236735
0.000310578
0.000367175
0.000389886
0.00035929
0.000265253
0.000210951
0.000200343
0.000209963
0.000357804
0.000404384
0.020435
0.020851
0.00817812
0.00248107
0.00213534
0.00203938
0.00198525
0.00190156
0.00165441
0.00106261
0.000486977
0.000247602
0.000182089
0.000173851
0.000180193
0.000183062
0.000175457
0.00015719
0.000132835
0.000110635
9.64684e-05
8.91226e-05
8.59453e-05
8.4991e-05
8.65719e-05
9.36099e-05
0.000109705
0.00013834
0.000184816
0.000258113
0.000358392
0.000461884
0.000544696
0.000600265
0.000542837
0.000445333
0.00044667
0.000516399
0.000793058
0.000749123
0.0245283
0.0272261
0.0171553
0.00245807
0.00170637
0.00171681
0.00169658
0.00162971
0.00141529
0.000932911
0.000468871
0.000261686
0.00020316
0.000199704
0.00021196
0.000222015
0.000221881
0.000209477
0.000187754
0.000163102
0.00014186
0.000127011
0.000117757
0.000112195
0.000109981
0.000113699
0.000127307
0.000153316
0.000198452
0.00028701
0.000432371
0.000608513
0.000764987
0.000949536
0.00124091
0.00161055
0.00224449
0.00315195
0.00702094
0.00138691
0.0324133
0.0503058
0.0616173
0.0104814
0.0019164
0.00166314
0.0015544
0.0014512
0.00124698
0.000845365
0.000479661
0.000310958
0.000250466
0.000237832
0.000243749
0.000252401
0.000254642
0.000246584
0.000229168
0.000207001
0.000185399
0.000167686
0.00015481
0.000146678
0.000143483
0.000146893
0.000161526
0.000184127
0.000209387
0.000293086
0.000485417
0.000766571
0.000959035
0.00108624
0.00122896
0.00142308
0.00166409
0.00189407
0.00210903
0.00117369
0.144191
0.0334775
0.0032795
0.00180451
0.00154824
0.00139405
0.00118868
0.0008231
0.000548121
0.000404615
0.000336384
0.00030642
0.000295298
0.000291351
0.00028705
0.000278237
0.000264036
0.000246301
0.000228001
0.000211624
0.000198758
0.000190611
0.000188848
0.000196392
0.000217036
0.000240821
0.000217067
0.000226795
0.000383987
0.000759972
0.00110128
0.00132287
0.00150913
0.00160265
0.00158337
0.00146051
0.0011683
0.00080118
0.0261959
0.00365328
0.00195727
0.00163556
0.00156186
0.0014575
0.00125276
0.000926657
0.000703527
0.000568349
0.000485279
0.000431222
0.000393689
0.00036646
0.000345933
0.000329395
0.000314832
0.000301126
0.000288094
0.000276194
0.000266235
0.000259363
0.000256993
0.000259629
0.000262914
0.000250188
0.000201227
0.000155618
0.000233252
0.000569551
0.000718447
0.000878865
0.00117453
0.00148193
0.00162605
0.00155113
0.00109269
0.000856266
0.00335292
0.00534016
0.00811113
0.00146029
0.00156579
0.00190621
0.00206438
0.00206684
0.00179639
0.00143668
0.00115169
0.000938552
0.000777976
0.000654824
0.000562854
0.000492656
0.000438096
0.000395051
0.000360418
0.000331809
0.000307514
0.000286467
0.000268167
0.000252609
0.000240197
0.000231237
0.000224159
0.00021278
0.000190244
0.000164377
0.000170064
0.000334255
0.000503191
0.000675149
0.000902406
0.00109553
0.00117682
0.00106163
0.000860309
0.000661049
)
;

boundaryField
{
    floor
    {
        Cmu             0.09;
        kappa           0.41;
        E               9.8;
        type            epsilonWallFunction;
        value           nonuniform List<scalar> 
29
(
8.04776e-05
5.67659e-05
0.00011146
7.01731e-05
5.04889e-05
4.0093e-05
3.0309e-05
2.25199e-05
1.68835e-05
1.31871e-05
1.08138e-05
9.23773e-06
8.16522e-06
7.2972e-06
6.47612e-06
5.95172e-06
8.09888e-06
3.6111e-05
6.66873e-05
3.75657e-05
3.75657e-05
7.28813e-05
0.000111725
0.000292526
8.04776e-05
5.67659e-05
8.77539e-05
0.000204197
0.000259771
)
;
    }
    ceiling
    {
        Cmu             0.09;
        kappa           0.41;
        E               9.8;
        type            epsilonWallFunction;
        value           nonuniform List<scalar> 
43
(
0.00335292
0.00534016
0.00811113
0.00146029
0.00156579
0.00190621
0.00206438
0.00206684
0.00179639
0.00143668
0.00115169
0.000938552
0.000777976
0.000654824
0.000562854
0.000492656
0.000438096
0.000395051
0.000360418
0.000331809
0.000307514
0.000286467
0.000268167
0.000252609
0.000240197
0.000231237
0.000224159
0.00021278
0.000190244
0.000164377
0.000170064
0.000334255
0.000503191
0.000675149
0.000902406
0.00109553
0.00117682
0.00106163
0.000860309
0.000661049
0.0324133
0.0503058
0.0261959
)
;
    }
    sWall
    {
        Cmu             0.09;
        kappa           0.41;
        E               9.8;
        type            epsilonWallFunction;
        value           uniform 0.00335292;
    }
    nWall
    {
        Cmu             0.09;
        kappa           0.41;
        E               9.8;
        type            epsilonWallFunction;
        value           nonuniform List<scalar> 6(0.000313973 0.000404384 0.000749123 0.00080118 0.000856266 0.000661049);
    }
    sideWalls
    {
        type            empty;
    }
    glass1
    {
        Cmu             0.09;
        kappa           0.41;
        E               9.8;
        type            epsilonWallFunction;
        value           nonuniform List<scalar> 9(0.00104491 0.00110571 0.00279294 0.0121549 0.0151792 0.0176278 0.020435 0.0245283 0.0324133);
    }
    glass2
    {
        Cmu             0.09;
        kappa           0.41;
        E               9.8;
        type            epsilonWallFunction;
        value           nonuniform List<scalar> 2(0.00138691 0.00117369);
    }
    sun
    {
        Cmu             0.09;
        kappa           0.41;
        E               9.8;
        type            epsilonWallFunction;
        value           nonuniform List<scalar> 
14
(
0.00104491
0.00149353
0.00200851
0.00179668
0.00108514
0.00076902
0.000487976
0.000306023
0.000232019
0.000184068
0.000150287
0.00012673
0.000108777
9.3618e-05
)
;
    }
    heatsource1
    {
        Cmu             0.09;
        kappa           0.41;
        E               9.8;
        type            epsilonWallFunction;
        value           nonuniform List<scalar> 3(0.000279547 0.000189435 0.000313973);
    }
    heatsource2
    {
        Cmu             0.09;
        kappa           0.41;
        E               9.8;
        type            epsilonWallFunction;
        value           nonuniform List<scalar> 4(8.30319e-05 4.00664e-05 4.00664e-05 8.89408e-05);
    }
    Table_master
    {
        Cmu             0.09;
        kappa           0.41;
        E               9.8;
        type            epsilonWallFunction;
        value           nonuniform List<scalar> 9(1.81443e-05 1.14035e-05 9.23969e-06 7.62872e-06 6.34561e-06 5.51463e-06 5.11885e-06 5.97456e-06 1.30116e-05);
    }
    Table_slave
    {
        Cmu             0.09;
        kappa           0.41;
        E               9.8;
        type            epsilonWallFunction;
        value           nonuniform List<scalar> 9(0.000137508 0.000153313 0.000175439 0.000205089 0.000244916 0.000307363 0.000340096 0.000342458 0.000314501);
    }
    inlet
    {
        type            turbulentMixingLengthDissipationRateInlet;
        mixingLength    0.01;
        phi             phi;
        k               k;
        value           uniform 3.77336e-06;
    }
    outlet
    {
        type            zeroGradient;
    }
}


// ************************************************************************* //
