/*--------------------------------*- C++ -*----------------------------------*\
  =========                 |
  \\      /  F ield         | OpenFOAM: The Open Source CFD Toolbox
   \\    /   O peration     | Website:  https://openfoam.org
    \\  /    A nd           | Version:  6
     \\/     M anipulation  |
\*---------------------------------------------------------------------------*/
FoamFile
{
    version     2.0;
    format      ascii;
    class       volScalarField;
    location    "100";
    object      nut;
}
// * * * * * * * * * * * * * * * * * * * * * * * * * * * * * * * * * * * * * //

dimensions      [0 2 -1 0 0 0 0];

internalField   nonuniform List<scalar> 
459
(
0.00143473
0.00161625
0.00178367
0.00171809
0.00145213
0.00129481
0.00111288
0.000952562
0.000868662
0.000804112
0.000751502
0.000709939
0.000674663
0.000641727
0.000610188
0.000543255
0.000680174
0.000582956
0.000522237
0.000483517
0.000440441
0.000398876
0.000362322
0.000333663
0.000312317
0.000296364
0.000284441
0.000273996
0.000263313
0.000256035
0.000284112
0.000467889
0.000573169
0.000473641
0.00146156
0.00255179
0.00364873
0.00484411
0.00555338
0.00551388
0.00517064
0.00440934
0.00356144
0.00328815
0.00326046
0.0030928
0.00273986
0.00224904
0.00159239
0.00061654
0.000483588
0.00062808
0.0020835
0.00180346
0.00151574
0.00123777
0.00104072
0.000731714
0.000704195
0.000679051
0.000662283
0.000650029
0.000625423
0.000601319
0.000584493
0.000554121
0.000661897
0.00115545
0.00145964
0.00059039
0.00199349
0.00267647
0.00302237
0.00338369
0.00402587
0.00472209
0.0052371
0.00541596
0.00510838
0.00431363
0.00409326
0.00398769
0.00348029
0.00274325
0.00193372
0.00120973
0.000630846
0.000832426
0.00237352
0.00187357
0.00140669
0.00105986
0.000802828
0.000371279
0.000317995
0.00029644
0.000278099
0.000261554
0.000249615
0.000243531
0.000256526
0.000332918
0.000999631
0.00154718
0.00155133
0.000680844
0.00325067
0.00382264
0.0037771
0.00367121
0.00374087
0.00413258
0.00473533
0.00532797
0.00565275
0.0053087
0.00486589
0.00481405
0.00432721
0.00343978
0.00243582
0.0015637
0.00104516
0.000901885
0.00168215
0.00176905
0.00145414
0.00118725
0.00102214
0.000862865
0.000729623
0.000756586
0.000791378
0.000833687
0.000884535
0.000954178
0.000987212
0.000989633
0.000962029
0.00107061
0.0012677
0.00168063
0.00093822
0.00350041
0.00465345
0.00431857
0.00398102
0.00384204
0.00403977
0.00457087
0.00527654
0.00586536
0.00589549
0.00574812
0.00581691
0.00570475
0.00521007
0.00455966
0.00384109
0.00316129
0.00263998
0.00230762
0.00240105
0.00241122
0.00242869
0.00242307
0.00242033
0.00244335
0.00252653
0.00265857
0.00283681
0.00305865
0.00332524
0.0035277
0.00354646
0.00342567
0.0031938
0.00273338
0.00229574
0.00170992
0.000924362
0.000811971
0.000960791
0.00367928
0.00511872
0.00433916
0.00385117
0.00376367
0.00397331
0.0045257
0.00530637
0.0060147
0.00621118
0.00622115
0.0065519
0.00676705
0.00664752
0.00637616
0.00599409
0.00548901
0.00489911
0.00430238
0.00391465
0.00364078
0.00344165
0.00325934
0.00309641
0.00296375
0.00288915
0.00288915
0.00296683
0.00312585
0.00337749
0.00365793
0.00378309
0.00377387
0.00368624
0.00341216
0.00296692
0.00239737
0.00169523
0.00179732
0.00104523
0.00386503
0.00493041
0.0036007
0.00361734
0.0037399
0.00401425
0.00459802
0.00541038
0.0061342
0.00637833
0.00643984
0.00684363
0.00729236
0.00743053
0.00740171
0.00725754
0.00697251
0.00654678
0.00601729
0.00548298
0.00500995
0.00457974
0.00417757
0.00379611
0.00344034
0.00314734
0.00295294
0.00287558
0.00293591
0.00317716
0.00351565
0.00373712
0.00380886
0.00390373
0.00395507
0.00365697
0.00319926
0.00274768
0.00242398
0.00128379
0.00410757
0.00464879
0.00373004
0.00348916
0.00401483
0.00433164
0.00485049
0.00558003
0.00623086
0.00648815
0.00654824
0.00685734
0.00730954
0.00760646
0.00772422
0.00772849
0.00760067
0.00732974
0.00693594
0.00647253
0.00599455
0.00552834
0.00507516
0.00462164
0.00415826
0.00370227
0.00329207
0.0029816
0.00283897
0.00302709
0.00345937
0.00379277
0.00387498
0.00404227
0.00445785
0.00487724
0.0048784
0.00477204
0.00490584
0.00157594
0.00450755
0.00521882
0.0064423
0.00369918
0.00444466
0.00506726
0.00538016
0.00591688
0.00643514
0.00666212
0.00661325
0.00664994
0.00687438
0.00714197
0.0073183
0.00739522
0.0073636
0.00721135
0.00694458
0.00659539
0.00620954
0.00582312
0.00545103
0.00509226
0.00473731
0.00436349
0.0039067
0.00336813
0.00284493
0.00281403
0.00334943
0.00388618
0.00375482
0.00340972
0.00312993
0.00292739
0.00275077
0.00248611
0.00224722
0.00149092
0.0100412
0.00522909
0.00451005
0.00597186
0.00614939
0.00644267
0.00676734
0.00682607
0.00653741
0.00629972
0.00620494
0.00621408
0.00624583
0.006268
0.00625431
0.00617916
0.0060309
0.00581898
0.00556862
0.00530759
0.00505787
0.00483609
0.00465481
0.00451
0.00434117
0.00397455
0.00302612
0.0023716
0.0028358
0.00407836
0.00446608
0.00430156
0.00401623
0.00363137
0.00319551
0.00275666
0.00232981
0.00131317
0.00419936
0.00335127
0.00560102
0.00605344
0.00622872
0.00637627
0.0064468
0.00610347
0.00561275
0.00519831
0.00489665
0.00468813
0.00451497
0.00439272
0.00431596
0.00426331
0.00421089
0.00414282
0.00405563
0.00395583
0.0038557
0.00377236
0.00372703
0.00373027
0.00372928
0.00352308
0.0027922
0.00179687
0.00173295
0.00318918
0.00408277
0.00404057
0.00408332
0.0040878
0.00387407
0.00360564
0.00290304
0.00134262
0.00211632
0.00247154
0.00284116
0.00160384
0.00164149
0.00175277
0.00179994
0.0018006
0.00171832
0.00159498
0.00148165
0.00138395
0.00130004
0.00122747
0.00116709
0.00111641
0.00107358
0.00103721
0.00100597
0.000978631
0.00095415
0.000931878
0.000911607
0.000893632
0.000878752
0.000867693
0.000858784
0.000844112
0.000813331
0.000774644
0.000782703
0.000979952
0.0011245
0.00124052
0.00136616
0.00145745
0.00149266
0.00144227
0.00134466
0.0012316
)
;

boundaryField
{
    floor
    {
        type            nutkWallFunction;
        Cmu             0.09;
        kappa           0.41;
        E               9.8;
        value           nonuniform List<scalar> 
29
(
7.36428e-05
6.523e-05
8.23126e-05
7.02372e-05
6.25846e-05
5.76473e-05
5.20883e-05
4.6661e-05
4.18275e-05
3.79925e-05
3.51066e-05
3.29313e-05
3.12952e-05
2.98549e-05
2.83751e-05
2.73596e-05
3.12051e-05
5.55487e-05
6.90073e-05
5.63314e-05
5.63314e-05
7.11672e-05
8.23833e-05
0.000113445
7.36428e-05
6.52299e-05
7.58682e-05
0.000100808
0.000109123
)
;
    }
    ceiling
    {
        type            nutkWallFunction;
        Cmu             0.09;
        kappa           0.41;
        E               9.8;
        value           nonuniform List<scalar> 
43
(
0.000246046
0.000284189
0.00032327
0.000189777
0.000193981
0.000206323
0.000211531
0.000211606
0.000202514
0.000188795
0.000176088
0.000165047
0.000155496
0.000147179
0.000140218
0.000134343
0.000129355
0.000125101
0.000121434
0.000118213
0.00011532
0.000112681
0.000110272
0.000108131
0.000106356
0.000105034
0.000103964
0.000102196
9.84824e-05
9.38096e-05
9.48557e-05
0.00011846
0.000135258
0.000148626
0.000162994
0.000173319
0.000177282
0.000171605
0.000160544
0.000147622
0.000494046
0.000564787
0.00046293
)
;
    }
    sWall
    {
        type            nutkWallFunction;
        Cmu             0.09;
        kappa           0.41;
        E               9.8;
        value           uniform 0.000246106;
    }
    nWall
    {
        type            nutkWallFunction;
        Cmu             0.09;
        kappa           0.41;
        E               9.8;
        value           nonuniform List<scalar> 6(0.000116105 0.000126047 0.000153631 0.000156967 0.00016032 0.000147634);
    }
    sideWalls
    {
        type            empty;
    }
    glass1
    {
        type            nutkWallFunction;
        Cmu             0.09;
        kappa           0.41;
        E               9.8;
        value           nonuniform List<scalar> 9(0.000170983 0.000174063 0.000232876 0.000366602 0.000392411 0.000410773 0.000429742 0.00045437 0.000494672);
    }
    glass2
    {
        type            nutkWallFunction;
        Cmu             0.09;
        kappa           0.41;
        E               9.8;
        value           nonuniform List<scalar> 2(0.00018678 0.000177215);
    }
    sun
    {
        type            nutkWallFunction;
        Cmu             0.09;
        kappa           0.41;
        E               9.8;
        value           nonuniform List<scalar> 
14
(
0.000170778
0.000191136
0.000209729
0.000202514
0.000172788
0.000154909
0.000133926
0.000115133
0.000105149
9.73997e-05
9.10322e-05
8.59642e-05
8.16341e-05
7.75653e-05
)
;
    }
    heatsource1
    {
        type            nutkWallFunction;
        Cmu             0.09;
        kappa           0.41;
        E               9.8;
        value           nonuniform List<scalar> 3(0.000111778 9.83358e-05 0.000116098);
    }
    heatsource2
    {
        type            nutkWallFunction;
        Cmu             0.09;
        kappa           0.41;
        E               9.8;
        value           nonuniform List<scalar> 4(7.44421e-05 5.76479e-05 5.76478e-05 7.62199e-05);
    }
    Table_master
    {
        type            nutkWallFunction;
        Cmu             0.09;
        kappa           0.41;
        E               9.8;
        value           nonuniform List<scalar> 9(4.30196e-05 3.58873e-05 3.29594e-05 3.04446e-05 2.81557e-05 2.64914e-05 2.56362e-05 2.7439e-05 3.78392e-05);
    }
    Table_slave
    {
        type            nutkWallFunction;
        Cmu             0.09;
        kappa           0.41;
        E               9.8;
        value           nonuniform List<scalar> 9(8.83623e-05 9.1644e-05 9.58585e-05 0.000100954 0.000107037 0.000115301 0.000119173 0.000119445 0.000116182);
    }
    inlet
    {
        type            calculated;
        value           uniform 3.3541e-05;
    }
    outlet
    {
        type            calculated;
        value           nonuniform List<scalar> 2(0.00211632 0.00247154);
    }
}


// ************************************************************************* //
