/*--------------------------------*- C++ -*----------------------------------*\
  =========                 |
  \\      /  F ield         | OpenFOAM: The Open Source CFD Toolbox
   \\    /   O peration     | Website:  https://openfoam.org
    \\  /    A nd           | Version:  6
     \\/     M anipulation  |
\*---------------------------------------------------------------------------*/
FoamFile
{
    version     2.0;
    format      ascii;
    class       surfaceScalarField;
    location    "100";
    object      phi;
}
// * * * * * * * * * * * * * * * * * * * * * * * * * * * * * * * * * * * * * //

dimensions      [1 0 -1 0 0 0 0];

internalField   nonuniform List<scalar> 
852
(
-0.00372122
0.00377548
-0.00346688
-0.000253237
-0.00230957
-0.0011564
-0.00173012
-0.000578849
-0.00194969
0.000219903
-0.0024722
0.000522719
-0.0028187
0.000346644
-0.00280568
-1.29136e-05
-0.00256077
-0.000244826
-0.00215939
-0.000401301
-0.0017086
-0.000450728
-0.00126748
-0.000441063
-0.00084976
-0.000417657
-0.000431689
-0.000418009
-0.00042788
-0.00048436
0.000488668
-0.000240983
-0.000243307
8.60384e-05
-0.00032696
0.000309958
-0.000223875
0.000421389
-0.00011139
0.000338626
8.28069e-05
0.000159724
0.000178946
5.96419e-05
0.00010012
3.62701e-06
5.6044e-05
-1.97127e-05
2.33613e-05
-1.20398e-05
-7.65301e-06
1.87017e-05
-3.07263e-05
5.42121e-05
-3.54944e-05
5.7705e-05
-3.46671e-06
6.96963e-06
5.07646e-05
0.000127394
-0.000120398
0.000512594
-0.000385137
0.000753583
-0.000240936
0.000758463
-0.000354003
0.00428415
0.00153827
-0.00214469
0.00277807
-0.00239557
0.00276584
-0.000566002
0.0020156
0.000970653
0.000844329
0.00169446
-0.000503344
0.00169483
-0.00159219
0.00107619
-0.0020335
0.000196637
-0.00192049
-0.000514221
-0.001678
-0.000693158
-0.00138084
-0.000738169
-0.00103051
-0.000767944
-0.000641428
-0.000807042
-0.00025783
-0.000811427
0.000297367
-0.000555196
0.00029738
0.000341312
0.000158922
4.28342e-05
5.52191e-05
-0.000204468
-7.96293e-05
-0.000210155
-0.000218169
-7.43902e-05
-0.000247144
-3.38209e-05
4.22477e-05
-9.68988e-05
0.000242045
-7.89844e-05
8.22254e-05
-6.5838e-05
4.29112e-05
-5.49386e-05
1.24699e-05
-4.43926e-05
-1.81968e-05
-3.41836e-05
-4.09331e-05
-2.36433e-05
-4.60301e-05
-3.85716e-05
1.14751e-05
-0.000122437
0.000134672
-3.70939e-05
-0.000205606
0.000224184
-0.000646314
0.000242161
-0.000258848
0.0010132
0.00594272
-0.00143568
0.00819407
-0.0043956
0.00824287
-0.00244399
0.00740203
0.000275216
0.00611136
0.00226172
0.00450156
0.00330464
0.00273112
0.00346566
0.000902027
0.00290562
-0.000638231
0.00173721
-0.0014014
0.000249081
-0.00154399
-0.000550509
-0.00152553
-0.000756595
-0.00142592
-0.00086751
-0.00126946
-0.000963459
-0.00108078
-0.00100006
-0.000774123
-0.000861806
-0.000476684
-0.000551164
0.000725602
-0.000854003
0.000358099
-0.00101775
8.41375e-05
-0.00107633
-0.000159568
-0.000990801
-0.000332664
-0.000474392
-0.000474141
-0.000232159
-0.000149752
-0.000106669
-9.40331e-05
-0.000112067
-0.000152838
-0.000198702
-0.000187046
-5.2141e-05
5.54687e-05
-0.000313077
-0.000750524
0.000159759
-0.00125738
0.000248092
-0.000225291
0.00811822
-0.00930469
0.00986993
-0.00614721
0.00938476
-0.00195873
0.00840442
0.00125567
0.00711415
0.00355217
0.00553491
0.0048841
0.00381737
0.00518345
0.00212828
0.00459497
0.000555359
0.00331038
-0.000688157
0.00149274
-0.00133081
9.22018e-05
-0.00165075
-0.000436625
-0.00185498
-0.000663249
-0.00202748
-0.000790922
-0.0022006
-0.000826888
-0.00234861
-0.000713745
-0.00249255
-0.000332685
-0.00240497
-7.06024e-05
-0.00203369
0.000354393
-0.00208542
0.000409881
-0.00219306
0.000191836
-0.00231443
-3.81471e-05
-0.00242251
-0.000224519
-0.00259168
-0.000304889
-0.00233184
-0.000259904
-0.00202387
-0.000308024
-0.0016033
-0.000420622
-0.00102026
-0.000583071
-0.000237283
-0.000783
0.000699915
-0.000937196
0.00161351
-0.0009136
0.00238214
-0.000768633
0.00288223
-0.00050009
0.00267006
-0.000100763
0.00232544
0.000504488
0.00159677
0.000976879
0.00139173
0.00436288
-0.0133563
0.00533803
-0.00712223
0.00528296
-0.00190353
0.00506046
0.00147832
0.00457678
0.00403601
0.00378485
0.00567624
0.00278005
0.00618848
0.00169588
0.00567939
0.000631724
0.00437476
-0.000335491
0.00246007
-0.00107654
0.000833283
-0.00155387
4.07359e-05
-0.00187949
-0.00033761
-0.00214706
-0.000523313
-0.00238511
-0.000588799
-0.00257463
-0.000524178
-0.00259307
-0.000314197
-0.00260548
-5.81282e-05
-0.00242639
0.00017537
-0.00225051
0.000234056
-0.00217913
0.000120521
-0.00217098
-4.62456e-05
-0.00219152
-0.000203908
-0.00218809
-0.000308238
-0.00205345
-0.000394461
-0.00182863
-0.000532745
-0.0015051
-0.000744048
-0.00105919
-0.00102885
-0.000481788
-0.00136026
0.00022073
-0.00163955
0.000994152
-0.00168686
0.00170459
-0.00147892
0.00225698
-0.00105233
0.00249634
-0.00033996
0.00247512
0.000525855
0.00220366
0.00124848
0.00204252
0.00155305
0.000315718
0.0017268
-0.000810344
0.00112595
-0.000753041
0.00116563
-0.0141465
0.0016193
-0.00757573
0.00217267
-0.00245669
0.00190872
0.00174247
0.00173921
0.00420573
0.0015065
0.00590917
0.00116215
0.00653305
0.000721977
0.00611979
0.000236531
0.00486039
-0.000287675
0.00298433
-0.000812059
0.00135768
-0.00122442
0.000453108
-0.00152409
-3.79161e-05
-0.00175226
-0.000295113
-0.00194144
-0.000399584
-0.00208196
-0.000383628
-0.00212935
-0.000266759
-0.00209217
-9.52563e-05
-0.00196848
5.17283e-05
-0.00183265
9.82777e-05
-0.00174992
3.78488e-05
-0.00172302
-7.30946e-05
-0.00173146
-0.000195411
-0.00172766
-0.000311964
-0.00167526
-0.000446782
-0.00156615
-0.000641756
-0.00138714
-0.000922956
-0.00112083
-0.00129503
-0.000758371
-0.00172256
-0.000296909
-0.00210084
0.000265019
-0.00224862
0.000855027
-0.00206878
0.00142671
-0.00162386
0.00190426
-0.000817356
0.00219834
0.000231927
0.00237918
0.0010678
0.00247613
0.00145628
0.00263832
0.00156478
0.00227147
0.00149296
0.0015849
-0.000602498
-0.0131051
-0.00045787
-0.00772014
-0.000446247
-0.00246807
-0.00110352
0.00239997
-0.000920244
0.00402266
-0.000569039
0.00555817
-0.000306139
0.00627038
-0.000176985
0.00599085
-0.000163116
0.00484667
-0.00029299
0.00311422
-0.000537395
0.00160207
-0.000776088
0.0006918
-0.000983886
0.000169895
-0.00115035
-0.000128619
-0.00127828
-0.000271626
-0.00136241
-0.000299459
-0.00138684
-0.000242297
-0.00134283
-0.000139221
-0.00124662
-4.44389e-05
-0.00114157
-6.73068e-06
-0.00107249
-3.11817e-05
-0.00105354
-9.19999e-05
-0.00107485
-0.000174054
-0.00111311
-0.000273647
-0.00115166
-0.000408156
-0.00118193
-0.0006114
-0.0011882
-0.000916586
-0.00114724
-0.00133585
-0.00103683
-0.00183281
-0.000844849
-0.00229264
-0.000576428
-0.00251686
-0.000257126
-0.00238793
0.000155445
-0.00203627
0.000691161
-0.00135292
0.00123104
-0.000307787
0.00171856
0.000580425
0.00220255
0.000972453
0.00283117
0.000936321
0.00287162
0.00145265
0.00452371
-0.00299622
-0.00960978
-0.0045349
-0.00618125
-0.00422661
-0.00277613
-0.00389746
0.00207104
-0.00306796
0.00319337
-0.00215877
0.00464919
-0.00137542
0.00548724
-0.000779485
0.0053951
-0.000375323
0.00444261
-0.000168125
0.00290702
-0.00014467
0.00157858
-0.000210003
0.000757116
-0.000308658
0.000268552
-0.000409972
-2.72847e-05
-0.000492106
-0.000189462
-0.000544101
-0.000247427
-0.000553684
-0.000232674
-0.00051453
-0.000178334
-0.000438589
-0.000120338
-0.000357003
-8.82752e-05
-0.000299046
-8.9098e-05
-0.000276765
-0.000114239
-0.00029343
-0.000157345
-0.000349021
-0.000218006
-0.000448607
-0.00030851
-0.000601792
-0.00045814
-0.000803075
-0.000715205
-0.00102308
-0.00111572
-0.00122059
-0.00163515
-0.00135497
-0.00215806
-0.0014411
-0.00243052
-0.00158463
-0.00224426
-0.00167269
-0.00194807
-0.00152668
-0.00149878
-0.000995952
-0.000838359
-0.000405655
-9.71914e-06
6.11231e-05
0.000505821
0.000527444
0.000470127
0.000203797
0.00177642
0.00506066
-0.00905898
-0.0152389
-0.0102195
-0.00779525
-0.00646355
-0.00168473
-0.00456133
0.00129136
-0.00315777
0.00324583
-0.00197275
0.00430241
-0.00102044
0.00444294
-0.000305274
0.00372751
0.00018988
0.00241185
0.000425002
0.00134342
0.000506301
0.000675787
0.000507106
0.000267738
0.000463449
1.63808e-05
0.000405508
-0.000131494
0.000358084
-0.000199966
0.000337202
-0.000211749
0.000349613
-0.000190699
0.000389315
-0.000159993
0.000438709
-0.000137623
0.000479959
-0.000130303
0.000502299
-0.000136535
0.000498601
-0.000153602
0.000460502
-0.00017986
0.000369233
-0.000217189
0.000186856
-0.000275701
-0.000129536
-0.000398727
-0.000578151
-0.000666998
-0.00108134
-0.0011318
-0.00154333
-0.00169587
-0.00199223
-0.00198133
-0.00285054
-0.0013858
-0.00402216
-0.000776315
-0.00524764
-0.000273161
-0.00639001
0.000304161
-0.00741736
0.00101777
-0.00862653
0.00171512
-0.010151
0.00199467
-0.00909415
0.000719724
-0.00366418
-0.00820061
0.000950429
-0.00640341
-0.00348175
-0.004828
-0.000283871
-0.00341754
0.00183555
-0.00206897
0.00295401
-0.000885914
0.00326
0.00010428
0.00273736
0.000805388
0.00171073
0.00118193
0.000966849
0.00136601
0.000491686
0.00143501
0.000198726
0.00143181
1.95926e-05
0.00138909
-8.87456e-05
0.00133588
-0.000146721
0.00129219
-0.000168008
0.0012681
-0.000166564
0.00126354
-0.000155372
0.00127024
-0.00014427
0.00127798
-0.000137994
0.00127874
-0.000137236
0.00126616
-0.000140967
0.00123316
-0.000146815
0.00116655
-0.000150519
0.00103899
-0.000148085
0.000792316
-0.000151982
0.000347043
-0.000221648
-0.000263912
-0.000520716
-0.000762984
-0.00119657
-0.00087374
-0.00187012
-0.0012315
-0.00102786
-0.00195711
-5.06067e-05
-0.00259752
0.000367349
-0.00314796
0.000854707
-0.00348314
0.00135305
-0.00345064
0.00168272
-0.00279807
0.00134218
-0.0013237
-0.000754569
-0.00489669
-0.00190147
0.0028538
-0.0039111
-0.00147198
-0.00402729
-0.00016753
-0.00313528
0.000943706
-0.00179021
0.00160908
-0.00039403
0.00186394
0.000846101
0.00149728
0.00165992
0.000896927
0.00212232
0.000504462
0.00235715
0.000256863
0.00245328
0.000102613
0.00246507
7.83098e-06
0.0024297
-5.33381e-05
0.00237081
-8.77935e-05
0.00230609
-0.000103229
0.00224666
-0.000107072
0.00219658
-0.000105228
0.0021543
-0.000101927
0.00211578
-9.94121e-05
0.00207696
-9.83477e-05
0.00203445
-9.83915e-05
0.00198522
-9.75302e-05
0.00192481
-9.00439e-05
0.00184291
-6.6119e-05
0.0017154
-2.44002e-05
0.00149789
-4.07696e-06
0.00111012
-0.0001329
0.000545073
-0.000631351
0.000109774
-0.00143413
-1.92061e-05
-0.000898551
-0.000293027
0.000223306
-0.000457118
0.000531519
-0.000409498
0.00080717
-3.32072e-05
0.00097685
0.000668398
0.000981202
0.00156135
0.000449299
0.0015894
-0.000782547
-0.00320775
-0.0033855
-0.00517387
-0.00231739
-0.00378736
-0.00395309
-0.00300768
-0.00139665
0.000469882
0.00197122
0.0028732
0.0033835
0.00364686
0.00375655
0.00377198
0.00372676
0.00364758
0.00355345
0.00345598
0.00336084
0.00326948
0.00318112
0.00309431
0.00300791
0.00292284
0.00284569
0.00279286
0.00278213
0.00279216
0.00267398
0.00205842
0.000643021
-0.000233754
9.74922e-06
0.000559868
0.0013841
0.00237702
0.00337385
0.00383914
0.00307345
)
;

boundaryField
{
    floor
    {
        type            calculated;
        value           nonuniform List<scalar> 
29
(
0
0
0
0
0
0
0
0
0
0
0
0
0
0
0
0
0
0
0
0
-4.84778e-06
-1.25298e-05
-1.87715e-05
-2.00805e-05
-3.74553e-06
-4.22357e-06
-1.1482e-05
-1.5439e-05
-1.69122e-05
)
;
    }
    ceiling
    {
        type            calculated;
        value           nonuniform List<scalar> 
43
(
-2.34442e-06
-2.83567e-06
-2.57568e-06
-1.8887e-06
-1.65811e-06
-1.5638e-06
-1.81678e-06
-2.49514e-06
-3.97547e-06
-4.98788e-06
-5.78004e-06
-6.43779e-06
-7.01376e-06
-7.54239e-06
-8.05e-06
-8.54683e-06
-9.03755e-06
-9.52445e-06
-1.00089e-05
-1.04917e-05
-1.09728e-05
-1.14508e-05
-1.19221e-05
-1.23804e-05
-1.28163e-05
-1.32208e-05
-1.36052e-05
-1.4042e-05
-1.46612e-05
-1.56538e-05
-1.80798e-05
-2.11251e-05
-2.01197e-05
-1.85288e-05
-1.69948e-05
-1.5998e-05
-1.55597e-05
-1.59176e-05
-1.67867e-05
-1.7398e-05
1.50172e-07
-1.17578e-06
-1.76147e-06
)
;
    }
    sWall
    {
        type            calculated;
        value           uniform -0.00018774;
    }
    nWall
    {
        type            calculated;
        value           nonuniform List<scalar> 6(-5.73693e-05 -6.63277e-05 -6.7052e-05 -9.11217e-05 -9.94742e-05 -0.000116831);
    }
    sideWalls
    {
        type            empty;
        value           nonuniform 0();
    }
    glass1
    {
        type            calculated;
        value           nonuniform List<scalar> 9(-5.33262e-05 -0.000153923 -0.000222219 -0.000249048 -0.000311122 -0.000375171 -0.00043875 -0.000498892 -0.000550754);
    }
    glass2
    {
        type            calculated;
        value           nonuniform List<scalar> 2(-0.000333015 -0.000369216);
    }
    sun
    {
        type            calculated;
        value           uniform 0;
    }
    heatsource1
    {
        type            calculated;
        value           nonuniform List<scalar> 3(2.05629e-07 2.06026e-07 2.06149e-07);
    }
    heatsource2
    {
        type            calculated;
        value           nonuniform List<scalar> 4(5.15571e-08 5.16195e-08 0 0);
    }
    Table_master
    {
        type            calculated;
        value           nonuniform List<scalar> 9(-1.5493e-07 -1.55092e-07 -1.55158e-07 -1.55202e-07 -1.55223e-07 -1.55225e-07 -1.55217e-07 -1.55212e-07 -1.55172e-07);
    }
    Table_slave
    {
        type            calculated;
        value           nonuniform List<scalar> 9(1.53892e-07 1.53976e-07 1.54072e-07 1.54205e-07 1.54392e-07 1.54422e-07 1.54203e-07 1.53959e-07 1.53808e-07);
    }
    inlet
    {
        type            calculated;
        value           uniform -0.000544886;
    }
    outlet
    {
        type            calculated;
        value           nonuniform List<scalar> 2(0.00357568 0.00179132);
    }
}


// ************************************************************************* //
