// -*- C++ -*-
// File generated by PyFoam - sorry for the ugliness

FoamFile
{
 version 2.0;
 format ascii;
 class volScalarField;
 location "100";
 object T;
}

dimensions [ 0 0 0 1 0 0 0 ];

internalField nonuniform List<scalar> 459
(
  303.242
  303.097
  303.092
  302.827
  302.497
  302.335
  302.229
  302.171
  302.146
  302.127
  302.112
  302.099
  302.089
  302.081
  302.082
  301.954
  301.95
  301.967
  301.983
  301.984
  301.976
  301.959
  301.93
  301.898
  301.867
  301.839
  301.815
  301.798
  301.789
  301.781
  301.774
  301.774
  301.777
  301.801
  303.602
  303.74
  303.723
  303.608
  303.394
  303.095
  302.736
  302.423
  302.265
  302.193
  302.151
  302.126
  302.107
  302.088
  302.067
  302.035
  301.987
  301.95
  301.955
  301.978
  301.99
  301.984
  301.952
  301.9
  301.85
  301.811
  301.777
  301.747
  301.725
  301.71
  301.704
  301.712
  301.748
  301.784
  301.782
  301.8
  303.998
  303.92
  303.871
  303.837
  303.742
  303.551
  303.271
  302.96
  302.613
  302.309
  302.206
  302.163
  302.138
  302.113
  302.086
  302.054
  302.021
  301.993
  302.003
  302.015
  302.019
  302.006
  301.971
  301.838
  301.772
  301.737
  301.711
  301.69
  301.677
  301.67
  301.674
  301.699
  301.866
  301.827
  301.82
  301.823
  304.109
  303.861
  303.789
  303.778
  303.756
  303.671
  303.489
  303.223
  302.892
  302.515
  302.278
  302.208
  302.178
  302.153
  302.124
  302.092
  302.065
  302.054
  302.047
  302.068
  302.087
  302.098
  302.103
  302.104
  302.105
  302.105
  302.104
  302.102
  302.097
  302.083
  302.072
  302.063
  302.052
  302.033
  302.001
  301.964
  301.94
  303.943
  303.545
  303.485
  303.541
  303.621
  303.633
  303.529
  303.31
  302.996
  302.615
  302.35
  302.262
  302.234
  302.215
  302.195
  302.171
  302.149
  302.133
  302.128
  302.14
  302.156
  302.167
  302.17
  302.17
  302.168
  302.165
  302.16
  302.152
  302.139
  302.121
  302.103
  302.092
  302.079
  302.061
  302.035
  302.001
  301.963
  301.937
  301.958
  302.003
  303.804
  303.281
  303.282
  303.393
  303.535
  303.592
  303.519
  303.317
  303.01
  302.644
  302.403
  302.324
  302.297
  302.285
  302.272
  302.255
  302.237
  302.223
  302.214
  302.218
  302.227
  302.234
  302.236
  302.234
  302.23
  302.224
  302.213
  302.198
  302.176
  302.149
  302.125
  302.113
  302.102
  302.081
  302.052
  302.019
  301.984
  301.953
  301.944
  301.963
  303.656
  303.16
  303.249
  303.41
  303.519
  303.56
  303.482
  303.28
  302.98
  302.652
  302.452
  302.384
  302.365
  302.356
  302.349
  302.338
  302.324
  302.311
  302.301
  302.298
  302.302
  302.305
  302.305
  302.302
  302.296
  302.286
  302.27
  302.246
  302.214
  302.176
  302.144
  302.132
  302.125
  302.104
  302.067
  302.03
  301.998
  301.972
  301.959
  301.975
  303.497
  303.116
  303.234
  303.435
  303.495
  303.5
  303.414
  303.221
  302.948
  302.671
  302.507
  302.449
  302.434
  302.43
  302.426
  302.419
  302.408
  302.396
  302.386
  302.38
  302.377
  302.376
  302.374
  302.371
  302.365
  302.353
  302.333
  302.302
  302.259
  302.209
  302.164
  302.15
  302.148
  302.136
  302.108
  302.06
  302.035
  302.024
  302.028
  302.199
  303.333
  303.004
  302.991
  303.362
  303.429
  303.414
  303.328
  303.158
  302.927
  302.701
  302.575
  302.528
  302.513
  302.509
  302.505
  302.499
  302.49
  302.478
  302.467
  302.458
  302.452
  302.446
  302.442
  302.438
  302.431
  302.421
  302.403
  302.37
  302.323
  302.259
  302.191
  302.166
  302.179
  302.193
  302.206
  302.22
  302.236
  302.262
  302.288
  302.355
  302.521
  303.198
  303.308
  303.308
  303.239
  303.105
  302.923
  302.746
  302.66
  302.621
  302.604
  302.596
  302.589
  302.581
  302.571
  302.56
  302.548
  302.537
  302.527
  302.519
  302.511
  302.503
  302.495
  302.485
  302.47
  302.45
  302.415
  302.352
  302.246
  302.164
  302.173
  302.19
  302.206
  302.22
  302.233
  302.243
  302.242
  302.251
  302.878
  303.149
  303.195
  303.205
  303.163
  303.069
  302.927
  302.812
  302.753
  302.72
  302.701
  302.689
  302.678
  302.667
  302.655
  302.643
  302.63
  302.618
  302.605
  302.594
  302.583
  302.572
  302.561
  302.548
  302.534
  302.52
  302.507
  302.483
  302.352
  302.166
  302.15
  302.167
  302.185
  302.2
  302.213
  302.217
  302.206
  302.232
  303.043
  302.971
  302.972
  303.107
  303.122
  303.125
  303.104
  303.051
  302.944
  302.886
  302.85
  302.826
  302.809
  302.795
  302.781
  302.768
  302.755
  302.742
  302.728
  302.714
  302.7
  302.686
  302.673
  302.66
  302.647
  302.634
  302.621
  302.609
  302.599
  302.579
  302.472
  302.194
  302.145
  302.155
  302.168
  302.178
  302.186
  302.188
  302.188
  302.22
)
;

boundaryField
{
  floor
  {
    type wallHeatTransfer;
    Tinf uniform 305.2;
    alphaWall uniform 0.24;
    value nonuniform List<scalar> 29
(
  302.579
  302.514
  302.43
  302.499
  302.553
  302.583
  302.615
  302.643
  302.664
  302.677
  302.685
  302.69
  302.693
  302.699
  302.713
  302.722
  302.663
  302.428
  302.347
  302.444
  302.444
  302.354
  302.321
  302.321
  302.579
  302.514
  302.457
  302.403
  302.433
)
;
  }
  ceiling
  {
    type wallHeatTransfer;
    Tinf uniform 303.2;
    alphaWall uniform 0.24;
    value nonuniform List<scalar> 43
(
  303.053
  302.983
  302.983
  303.114
  303.128
  303.13
  303.11
  303.061
  302.963
  302.911
  302.879
  302.859
  302.844
  302.833
  302.823
  302.813
  302.802
  302.792
  302.78
  302.769
  302.758
  302.747
  302.736
  302.725
  302.715
  302.704
  302.693
  302.684
  302.677
  302.662
  302.569
  302.308
  302.252
  302.254
  302.258
  302.263
  302.269
  302.274
  302.278
  302.314
  303.329
  303.01
  302.889
)
;
  }
  sWall
  {
    type wallHeatTransfer;
    Tinf uniform 315.2;
    alphaWall uniform 0.36;
    value uniform 304.146;
  }
  nWall
  {
    type wallHeatTransfer;
    Tinf uniform 307.2;
    alphaWall uniform 0.36;
    value nonuniform List<scalar> 6
(
  302.851
  302.768
  302.666
  302.895
  302.868
  302.9
)
;
  }
  sideWalls
  {
    type empty;
  }
  glass1
  {
    type wallHeatTransfer;
    Tinf uniform 315.2;
    alphaWall uniform 4.3;
    value nonuniform List<scalar> 9
(
  310.763
  310.853
  310.281
  309.145
  308.872
  308.67
  308.462
  308.216
  307.884
)
;
  }
  glass2
  {
    type wallHeatTransfer;
    Tinf uniform 307.2;
    alphaWall uniform 4.3;
    value nonuniform List<scalar> 2
(
  305.231
  305.348
)
;
  }
  sun
  {
    type wallHeatTransfer;
    Tinf uniform 305.2;
    alphaWall uniform 0.24;
    value nonuniform List<scalar> 14
(
  303.408
  303.259
  303.242
  303.001
  302.723
  302.598
  302.535
  302.522
  302.524
  302.53
  302.537
  302.544
  302.551
  302.561
)
;
  }
  heatsource1
  {
    type fixedGradient;
    gradient uniform 0;
  }
  heatsource2
  {
    type fixedGradient;
    gradient uniform 0;
  }
  Table_master
  {
    type zeroGradient;
  }
  Table_slave
  {
    type zeroGradient;
  }
  inlet
  {
    type fixedValue;
    value uniform 290.15;
  }
  outlet
  {
    type zeroGradient;
  }
} 	// ************************************************************************* //

