// -*- C++ -*-
// File generated by PyFoam - sorry for the ugliness

FoamFile
{
 version 2.0;
 format ascii;
 class volVectorField;
 location "100";
 object U;
}

dimensions [ 0 1 -1 0 0 0 0 ];

internalField nonuniform List<vector> 459
(
  (-0.0441824 0.0718276 0)
  (-0.167545 -0.0215499 0)
  (-0.103545 -0.0370399 0)
  (-0.0830741 -0.0031993 0)
  (-0.0838106 0.0154349 0)
  (-0.0968469 0.0106045 0)
  (-0.117118 8.03048e-06 0)
  (-0.123484 -0.00790155 0)
  (-0.115859 -0.0126841 0)
  (-0.101507 -0.0158261 0)
  (-0.0831491 -0.016355 0)
  (-0.0633706 -0.0157386 0)
  (-0.0431421 -0.0152579 0)
  (-0.0285536 -0.0160503 0)
  (-0.0532852 -0.0170355 0)
  (0.0348503 0.00812448 0)
  (-0.0246366 -0.0081071 0)
  (-0.00559177 -0.0120953 0)
  (0.00822786 -0.0103925 0)
  (0.0144675 -0.00765219 0)
  (0.0176886 -0.00305959 0)
  (0.0133495 0.000449111 0)
  (0.00550479 0.000668068 0)
  (0.000981693 0.00034847 0)
  (-0.000840704 3.9544e-06 0)
  (-0.000984261 -0.000471481 0)
  (-2.70182e-05 -0.000906268 0)
  (0.00148031 -0.0010556 0)
  (0.00257022 -0.000379586 0)
  (0.00145635 0.00138517 0)
  (0.00243776 -0.0024795 0)
  (0.0127175 -0.0164303 0)
  (0.0374734 -0.0129 0)
  (-0.0216159 0.0136343 0)
  (0.227619 0.199382 0)
  (0.0283932 -0.0838403 0)
  (0.11166 -0.087846 0)
  (0.117709 -0.0258565 0)
  (0.103379 0.0261007 0)
  (0.0660672 0.0488299 0)
  (0.00774742 0.0405667 0)
  (-0.0528947 0.00888612 0)
  (-0.0840375 -0.0142501 0)
  (-0.0863989 -0.0247759 0)
  (-0.0779098 -0.0279298 0)
  (-0.0659843 -0.027998 0)
  (-0.0517444 -0.0280305 0)
  (-0.0361147 -0.0292491 0)
  (-0.0227694 -0.0315597 0)
  (-0.00451803 -0.0323279 0)
  (0.0194139 -0.00115891 0)
  (0.122156 0.0158196 0)
  (-0.00468671 0.000296573 0)
  (-0.0106449 -0.00744735 0)
  (-0.0103887 -0.00877188 0)
  (-0.0101737 -0.00726749 0)
  (-0.00152333 0.00319491 0)
  (0.0027041 0.0100771 0)
  (-0.00350915 0.00536449 0)
  (-0.00360819 0.00361447 0)
  (-0.00286233 0.00222797 0)
  (-0.00222064 0.000847482 0)
  (-0.00170753 -0.000305623 0)
  (-0.00111879 -0.00075617 0)
  (-0.00118929 0.000623542 0)
  (-0.00635531 0.00239109 0)
  (-0.00216317 -0.0104179 0)
  (0.00798009 -0.0251345 0)
  (0.0258371 -0.0146046 0)
  (-0.0905512 0.0363593 0)
  (0.522055 0.206738 0)
  (0.324649 -0.0448721 0)
  (0.332076 -0.0551925 0)
  (0.342066 0.0181337 0)
  (0.301592 0.0823645 0)
  (0.232579 0.114568 0)
  (0.1553 0.11583 0)
  (0.078205 0.0911858 0)
  (0.00011883 0.0400905 0)
  (-0.0546291 -0.0146232 0)
  (-0.0655504 -0.0303013 0)
  (-0.0666121 -0.0347849 0)
  (-0.0636158 -0.0378291 0)
  (-0.0579654 -0.041249 0)
  (-0.0512853 -0.0431592 0)
  (-0.0443867 -0.0389865 0)
  (-0.035454 -0.0276602 0)
  (0.0845151 0.021218 0)
  (-0.0460284 0.00957277 0)
  (-0.0416984 0.00210384 0)
  (-0.0457008 -0.0069935 0)
  (-0.0470481 -0.0123874 0)
  (-0.0416789 -0.0121461 0)
  (-0.000434388 0.00569322 0)
  (-0.00786083 -0.0013675 0)
  (-0.00580047 -0.00334123 0)
  (-0.00445528 -0.00489383 0)
  (-0.00447908 -0.00637389 0)
  (-0.0055411 -0.00719071 0)
  (-0.00696494 -0.00683788 0)
  (-0.0105048 -0.00347198 0)
  (-0.0230543 0.00457687 0)
  (0.027573 -0.00644824 0)
  (-0.000924839 -0.00275952 0)
  (-0.0483011 0.00526565 0)
  (-0.163826 0.0162624 0)
  (0.737083 -0.345107 0)
  (0.34423 -0.286553 0)
  (0.374158 -0.153076 0)
  (0.398294 -0.0172777 0)
  (0.350389 0.097347 0)
  (0.277393 0.164875 0)
  (0.201226 0.184019 0)
  (0.126254 0.163827 0)
  (0.0542249 0.114044 0)
  (-0.0104233 0.0410272 0)
  (-0.0495204 -0.0123535 0)
  (-0.0655105 -0.027438 0)
  (-0.0754956 -0.0341169 0)
  (-0.0830941 -0.0378315 0)
  (-0.0906287 -0.0364012 0)
  (-0.0996432 -0.0235764 0)
  (-0.109562 0.00820304 0)
  (-0.107948 0.0595721 0)
  (-0.0780649 0.024454 0)
  (-0.0950078 0.0165236 0)
  (-0.0921048 0.00473782 0)
  (-0.0971701 -0.00600175 0)
  (-0.103435 -0.0136139 0)
  (-0.109219 -0.0171423 0)
  (-0.106755 -0.013303 0)
  (-0.0941932 -0.0145632 0)
  (-0.0778821 -0.018619 0)
  (-0.056306 -0.0243679 0)
  (-0.030164 -0.0314685 0)
  (0.0125313 -0.0364749 0)
  (0.0499526 -0.0334185 0)
  (0.085176 -0.0274186 0)
  (0.113934 -0.0195878 0)
  (0.124565 -0.00867286 0)
  (0.11335 0.0131943 0)
  (0.093362 0.0267237 0)
  (-0.0272171 0.0263375 0)
  (0.719545 -0.531414 0)
  (0.0712852 -0.308626 0)
  (0.187039 -0.0851358 0)
  (0.241135 0.0713054 0)
  (0.226221 0.171736 0)
  (0.187401 0.231443 0)
  (0.143242 0.247897 0)
  (0.0956735 0.22439 0)
  (0.0471976 0.168999 0)
  (0.000412336 0.0887417 0)
  (-0.034938 0.0213087 0)
  (-0.0584601 -0.00929037 0)
  (-0.0743628 -0.0222538 0)
  (-0.0867512 -0.0292801 0)
  (-0.0978586 -0.0325924 0)
  (-0.107195 -0.0313805 0)
  (-0.112378 -0.023322 0)
  (-0.112991 -0.00589176 0)
  (-0.106308 0.0119648 0)
  (-0.100327 0.0151869 0)
  (-0.0946274 0.00787795 0)
  (-0.0933969 -0.000635276 0)
  (-0.0941916 -0.00803051 0)
  (-0.0948866 -0.0123275 0)
  (-0.0918627 -0.013624 0)
  (-0.0840033 -0.0182581 0)
  (-0.0719486 -0.0257897 0)
  (-0.0552675 -0.0361793 0)
  (-0.0339421 -0.0485717 0)
  (-0.00657164 -0.05852 0)
  (0.0264072 -0.0582583 0)
  (0.0573953 -0.0492002 0)
  (0.0847801 -0.0321334 0)
  (0.104448 -0.00635093 0)
  (0.111151 0.0248771 0)
  (0.111316 0.0499189 0)
  (0.0733962 0.0635882 0)
  (0.0969717 0.0664585 0)
  (0.0119063 0.00905435 0)
  (-0.334338 -0.0373643 0)
  (0.679335 -0.617338 0)
  (-0.161796 -0.325112 0)
  (0.0783702 -0.0811826 0)
  (0.10974 0.0755355 0)
  (0.0913579 0.186509 0)
  (0.0758938 0.257476 0)
  (0.0604706 0.280183 0)
  (0.0409046 0.25875 0)
  (0.0187382 0.202269 0)
  (-0.00535652 0.119078 0)
  (-0.0264181 0.0482441 0)
  (-0.0447668 0.0116559 0)
  (-0.0599436 -0.00755772 0)
  (-0.0707515 -0.0168053 0)
  (-0.0797771 -0.020136 0)
  (-0.0870271 -0.0184449 0)
  (-0.0911045 -0.0125049 0)
  (-0.0911762 -0.00449773 0)
  (-0.0874753 0.00392355 0)
  (-0.0815299 0.00694808 0)
  (-0.0764763 0.00335516 0)
  (-0.074186 -0.00281006 0)
  (-0.0742271 -0.00916456 0)
  (-0.0746699 -0.0145009 0)
  (-0.0736008 -0.0195523 0)
  (-0.0700618 -0.0270215 0)
  (-0.0636623 -0.0378412 0)
  (-0.0539047 -0.052111 0)
  (-0.0405707 -0.0685371 0)
  (-0.0235295 -0.082987 0)
  (-0.00133623 -0.0881365 0)
  (0.0231574 -0.0799404 0)
  (0.0469119 -0.0604266 0)
  (0.0707434 -0.026021 0)
  (0.0919858 0.0176401 0)
  (0.103549 0.0523901 0)
  (0.100321 0.0692242 0)
  (0.115044 0.0732321 0)
  (0.125109 0.0637203 0)
  (-0.0944497 0.0421465 0)
  (0.571478 -0.591118 0)
  (-0.237457 -0.331778 0)
  (0.0034041 -0.109629 0)
  (-0.00874604 0.105277 0)
  (-0.0394049 0.187041 0)
  (-0.0269386 0.256468 0)
  (-0.015454 0.28374 0)
  (-0.00952321 0.266544 0)
  (-0.00827382 0.212416 0)
  (-0.0121077 0.133126 0)
  (-0.0189149 0.0651159 0)
  (-0.0285503 0.0255763 0)
  (-0.0380272 0.00356545 0)
  (-0.0462707 -0.00866599 0)
  (-0.0524502 -0.0140565 0)
  (-0.0571523 -0.0143655 0)
  (-0.0595477 -0.0107791 0)
  (-0.0590074 -0.00534857 0)
  (-0.0559197 -0.000305899 0)
  (-0.0513842 0.0017372 0)
  (-0.0471079 0.000197351 0)
  (-0.0451792 -0.00342313 0)
  (-0.0454773 -0.00803936 0)
  (-0.0469736 -0.0131604 0)
  (-0.0487567 -0.0195159 0)
  (-0.0502079 -0.0287007 0)
  (-0.050827 -0.0418764 0)
  (-0.0500146 -0.0592767 0)
  (-0.0470031 -0.0794302 0)
  (-0.040582 -0.0979575 0)
  (-0.0306319 -0.107232 0)
  (-0.018892 -0.102492 0)
  (-0.00632088 -0.0870176 0)
  (0.0119335 -0.0547865 0)
  (0.043741 -0.0049837 0)
  (0.068953 0.0374411 0)
  (0.0832479 0.0555955 0)
  (0.107742 0.0573206 0)
  (0.154793 0.0647559 0)
  (-0.0518583 0.125212 0)
  (0.376219 -0.469008 0)
  (-0.301203 -0.273861 0)
  (-0.217139 -0.112145 0)
  (-0.121728 0.116196 0)
  (-0.152011 0.165064 0)
  (-0.109352 0.227718 0)
  (-0.0732343 0.259971 0)
  (-0.0451682 0.250548 0)
  (-0.0248762 0.203912 0)
  (-0.0124132 0.132906 0)
  (-0.0064908 0.0707465 0)
  (-0.00709604 0.0323066 0)
  (-0.0106746 0.00996587 0)
  (-0.0155521 -0.00316222 0)
  (-0.0194322 -0.00991834 0)
  (-0.0224923 -0.0118997 0)
  (-0.0239634 -0.010452 0)
  (-0.0233399 -0.00716657 0)
  (-0.0207459 -0.00391245 0)
  (-0.0171132 -0.00228928 0)
  (-0.0138373 -0.00258354 0)
  (-0.0120058 -0.00423365 0)
  (-0.0118794 -0.00686798 0)
  (-0.0134335 -0.0104253 0)
  (-0.0167207 -0.015602 0)
  (-0.0220019 -0.023875 0)
  (-0.0295256 -0.0369198 0)
  (-0.0389489 -0.0553876 0)
  (-0.0485212 -0.0777482 0)
  (-0.0547956 -0.0988786 0)
  (-0.0584054 -0.109739 0)
  (-0.0641803 -0.1043 0)
  (-0.0730181 -0.0926173 0)
  (-0.0761411 -0.0744277 0)
  (-0.0634839 -0.0479259 0)
  (-0.0187318 -0.0138317 0)
  (-0.00513366 0.00917429 0)
  (0.0204188 0.00999886 0)
  (0.119534 0.0821761 0)
  (-0.541348 0.257908 0)
  (0.0943673 -0.326653 0)
  (-0.587617 -0.252351 0)
  (-0.733364 -0.208829 0)
  (-0.203572 0.0189832 0)
  (-0.24287 0.108121 0)
  (-0.163911 0.176446 0)
  (-0.108036 0.216078 0)
  (-0.063001 0.216296 0)
  (-0.0281705 0.17967 0)
  (-0.00192882 0.117985 0)
  (0.0145231 0.0650468 0)
  (0.0212729 0.0324383 0)
  (0.0227669 0.0125963 0)
  (0.0214254 0.000314115 0)
  (0.0188562 -0.00690122 0)
  (0.0163479 -0.0100581 0)
  (0.0146825 -0.0102931 0)
  (0.014422 -0.00884646 0)
  (0.0156132 -0.00702448 0)
  (0.017702 -0.00585336 0)
  (0.0198259 -0.00563373 0)
  (0.0213033 -0.00619736 0)
  (0.0217814 -0.0073796 0)
  (0.0209903 -0.00913119 0)
  (0.0184506 -0.01172 0)
  (0.0131844 -0.0160701 0)
  (0.00278363 -0.0248269 0)
  (-0.0150465 -0.0409115 0)
  (-0.0370853 -0.0627664 0)
  (-0.0547813 -0.0839927 0)
  (-0.0707066 -0.0918547 0)
  (-0.0993329 -0.0753487 0)
  (-0.146275 -0.053653 0)
  (-0.200815 -0.0273065 0)
  (-0.253012 0.00576974 0)
  (-0.298656 0.0398368 0)
  (-0.337388 0.0641796 0)
  (-0.383194 0.0753645 0)
  (-0.44122 0.0734541 0)
  (-0.706487 0.0560796 0)
  (-1.5999 -0.22879 0)
  (-0.0976728 -0.13189 0)
  (-0.246909 0.0173668 0)
  (-0.176942 0.110327 0)
  (-0.116875 0.158174 0)
  (-0.0626371 0.168167 0)
  (-0.0167 0.142239 0)
  (0.0219561 0.0902801 0)
  (0.0445424 0.0515704 0)
  (0.0565148 0.0267597 0)
  (0.0615719 0.0112563 0)
  (0.062596 0.00151645 0)
  (0.0610799 -0.00440364 0)
  (0.0586741 -0.00747375 0)
  (0.0563623 -0.00850543 0)
  (0.0547876 -0.00830946 0)
  (0.0541748 -0.00764738 0)
  (0.0543114 -0.00709837 0)
  (0.054734 -0.00691525 0)
  (0.0550075 -0.00710168 0)
  (0.0548312 -0.00758368 0)
  (0.053959 -0.00827253 0)
  (0.0520236 -0.00911638 0)
  (0.0482146 -0.0102299 0)
  (0.0405159 -0.0124332 0)
  (0.0256452 -0.0180133 0)
  (-0.000780553 -0.0329915 0)
  (-0.0196999 -0.0565972 0)
  (-0.0309116 -0.0703709 0)
  (-0.0448465 -0.0402713 0)
  (-0.0694658 -0.0173164 0)
  (-0.0966907 0.00139717 0)
  (-0.122871 0.0235257 0)
  (-0.146107 0.0494988 0)
  (-0.156487 0.0684648 0)
  (-0.137473 0.0555233 0)
  (-0.0547195 -0.0389772 0)
  (-0.28406 -0.256509 0)
  (-0.386089 0.0609322 0)
  (-0.0254986 -0.125161 0)
  (-0.180571 -0.0241663 0)
  (-0.158804 0.0537334 0)
  (-0.10679 0.0983158 0)
  (-0.0485495 0.113609 0)
  (0.0116821 0.0954243 0)
  (0.0563635 0.05934 0)
  (0.0834873 0.0347671 0)
  (0.0984616 0.0199685 0)
  (0.105138 0.0118433 0)
  (0.106918 0.0079432 0)
  (0.105873 0.00617331 0)
  (0.10347 0.00586992 0)
  (0.10058 0.00665182 0)
  (0.0977699 0.00815097 0)
  (0.0953581 0.0100338 0)
  (0.0933862 0.0120409 0)
  (0.0916988 0.0140304 0)
  (0.0900891 0.0159612 0)
  (0.0883889 0.0178534 0)
  (0.0864778 0.0198284 0)
  (0.0842321 0.0222383 0)
  (0.0813635 0.02568 0)
  (0.0769676 0.0301289 0)
  (0.069057 0.0326248 0)
  (0.0556033 0.0227557 0)
  (0.0418172 -0.0173082 0)
  (0.0182543 -0.0691894 0)
  (-0.00810143 -0.0255465 0)
  (-0.00496408 0.0311158 0)
  (-0.0146909 0.0379505 0)
  (-0.0176672 0.0479483 0)
  (-0.0124753 0.0622613 0)
  (0.00190778 0.0761886 0)
  (0.0322894 0.0671005 0)
  (0.138196 -0.00477401 0)
  (-0.19223 -0.163201 0)
  (0.216966 -0.153192 0)
  (-0.222752 -0.0751898 0)
  (-0.20157 0.0906744 0)
  (-0.100259 -0.045086 0)
  (-0.174927 -0.00459777 0)
  (-0.150509 0.0282292 0)
  (-0.0959839 0.0512886 0)
  (-0.0272155 0.0629305 0)
  (0.0574275 0.0445334 0)
  (0.105152 0.0207183 0)
  (0.13637 0.00204683 0)
  (0.153686 -0.0123457 0)
  (0.161321 -0.0239334 0)
  (0.16338 -0.0337397 0)
  (0.162059 -0.0418884 0)
  (0.158975 -0.0488276 0)
  (0.155018 -0.0549504 0)
  (0.150747 -0.0605605 0)
  (0.146512 -0.0658954 0)
  (0.142463 -0.071135 0)
  (0.1386 -0.0763982 0)
  (0.134851 -0.081743 0)
  (0.131144 -0.0871684 0)
  (0.127457 -0.0925962 0)
  (0.123917 -0.0978378 0)
  (0.120972 -0.102643 0)
  (0.119387 -0.107111 0)
  (0.119453 -0.112501 0)
  (0.118871 -0.121254 0)
  (0.109868 -0.135568 0)
  (0.0693461 -0.167807 0)
  (-0.0110308 -0.186469 0)
  (-0.00575576 -0.140069 0)
  (0.0154585 -0.098627 0)
  (0.043734 -0.0609044 0)
  (0.0794929 -0.0409475 0)
  (0.117814 -0.0331935 0)
  (0.154973 -0.0502946 0)
  (0.190864 -0.0901234 0)
  (-0.133143 -0.159021 0)
)
;

boundaryField
{
  floor
  {
    type noSlip;
  }
  ceiling
  {
    type noSlip;
  }
  sWall
  {
    type noSlip;
  }
  nWall
  {
    type noSlip;
  }
  sideWalls
  {
    type empty;
  }
  glass1
  {
    type noSlip;
  }
  glass2
  {
    type noSlip;
  }
  sun
  {
    type noSlip;
  }
  heatsource1
  {
    type noSlip;
  }
  heatsource2
  {
    type noSlip;
  }
  Table_master
  {
    type noSlip;
  }
  Table_slave
  {
    type noSlip;
  }
  inlet
  {
    type fixedValue;
    value uniform (0.1 0 0);
  }
  outlet
  {
    type zeroGradient;
  }
} 	// ************************************************************************* //

