/*--------------------------------*- C++ -*----------------------------------*=========                 |
  \      /  F ield         | OpenFOAM: The Open Source CFD Toolbox
   \    /   O peration     | Website:  https://openfoam.org
    \  /    A nd           | Version:  6
     \/     M anipulation  |
\*---------------------------------------------------------------------------*/
FoamFile
{
    version     2.0;
    format      ascii;
    class       volScalarField;
    location    "200";
    object      PMV;
}
// * * * * * * * * * * * * * * * * * * * * * * * * * * * * * * * * * * * * * //

dimensions      [0 0 0 0 0 0 0];

internalField   nonuniform List<scalar> 
459
(
1.5148613544220937
1.3021639380873709
1.2929506554837495
1.268479167952875
1.2497361758971883
1.234868970941792
1.2240481461238921
1.2171686694051744
1.21445199051977
1.2165881832912064
1.2236917378685537
1.2384411520970828
1.264163584631308
1.2916555014516315
1.2810200295426948
1.3600659190160733
1.4107048959502828
1.397180679825212
1.371606837216246
1.3585649149061099
1.3520988807563423
1.3490179346570594
1.348532953832776
1.3493917972248248
1.3505403268791933
1.3516338131243728
1.3527527978189313
1.354145423157114
1.3563233082779813
1.3605003546457197
1.3692447591764947
1.3862360331172359
1.3849330588608304
1.392092245346301
1.487853063696266
1.3007468290543551
1.3169331350239
1.290680281686604
1.2739379628587737
1.261811557242118
1.2527158244880494
1.247471529924772
1.2451807650165287
1.2469492829156095
1.2508895950045644
1.257421605433562
1.2663096250134975
1.2704873980594302
1.2656602743610512
1.2963827642600787
1.3457212584585128
1.3307941629411455
1.403069155813979
1.3987739172632807
1.3954331099850443
1.3864780282128186
1.3756049391540224
1.3675325234206395
1.3633466486833496
1.3603063926143941
1.3574123303734802
1.3537823833307898
1.3501723926067848
1.347140491088309
1.34474813772797
1.343395851729514
1.3485902356335975
1.362021964181292
1.3634539814747275
1.3395908321987477
1.5540774798835626
1.284131740952326
1.3444883841458461
1.3223348844353842
1.314397323558859
1.3087416609041957
1.3051340826584037
1.3030572537078353
1.3032504976855832
1.3047977651710625
1.305369758642796
1.303950699980575
1.2981057772550313
1.2859072695146396
1.2752796448322914
1.2837770339302466
1.2866110821109742
1.3406697197840753
1.4040236401724369
1.4011601727797094
1.398296662611548
1.394955847108279
1.392092245346301
1.3863649168105479
1.380637423677385
1.3753870791686038
1.370136600344679
1.365363322814115
1.3605899372537102
1.3562937990441257
1.3523836923371506
1.3406729662380612
1.3365939768668909
1.3496107481125519
1.3311268879394471
1.2624364943210353
1.6491443958586118
1.2767847959042506
1.364525862625395
1.3523644698652235
1.3575640044800281
1.3623360302053567
1.3671699779563464
1.3719908352775225
1.3762434172211169
1.3787020515542088
1.3763788011265339
1.366109593778569
1.345003943712915
1.3164819336148657
1.2880011911917493
1.2705053237190018
1.2784195755239405
1.388059773437487
1.3709457672163772
1.4087959899056999
1.4073642976426535
1.404978119742705
1.4021146666791275
1.3997284230227098
1.3973421497713494
1.3954331099850443
1.3796246132174161
1.361340923707351
1.3467479856030822
1.337417886784955
1.3347219470210256
1.341439416982422
1.361507645418927
1.362646717134082
1.3530871112310328
1.2975064130796103
1.2045014610532683
1.7517086706824732
1.2898913111924029
1.3792044609203118
1.378117984649019
1.3967079967284701
1.4153649604381557
1.4334438052513576
1.4492872852223115
1.461545350312734
1.4669847962397624
1.4610252716955587
1.4386954673334673
1.4029288968471112
1.3584862044677422
1.3132225545491178
1.2759168164063512
1.2665077079215477
1.3132356502534757
1.361293678924654
1.412033613285795
1.4145226494902257
1.4126137825102754
1.4102276712621282
1.408318760361166
1.4073642976426535
1.4059325945130214
1.4045008805568349
1.4020995654739206
1.386749705653597
1.3745145028964465
1.3662819766291168
1.3640531215467007
1.3655663303216588
1.355733254957562
1.3359279312790056
1.2675518064061215
1.2603084901361685
1.3978194067803968
1.3607044155034542
1.1781974628153409
1.8468653922735565
1.3256677951070623
1.4105321925507444
1.4015568187060097
1.4267888193102196
1.4594068850909183
1.4949789924844508
1.5317401897088665
1.5619116964854969
1.5733400800205766
1.5491773426937396
1.5058362852727645
1.454698922338091
1.3989094290861233
1.3419987273218403
1.289932764413726
1.2618822467227189
1.2922135747309966
1.355034698310918
1.4070968549871525
1.421203528345651
1.420249131993193
1.418817528110326
1.4173859130385293
1.4164314967945926
1.4154770756078559
1.4145226494902257
1.4126137825102754
1.4097504453576313
1.405455357728615
1.3997284230227098
1.3930467839241527
1.379809872463678
1.3545687654976761
1.3244699122199015
1.255602394595752
1.2662372842031957
1.2783126482645342
1.2687958862554782
1.2714435607280437
1.9263000209122911
1.419570975731326
1.548081514142976
1.4556561428393433
1.445648728728365
1.481351914880194
1.5339930908485502
1.5590548691059203
1.5790776067361183
1.6029086490921158
1.5810020736126276
1.5300881236141417
1.477748547860936
1.4215341610342442
1.3638136847568951
1.3040915944003053
1.2570614726917615
1.2824611940021904
1.3560369578515477
1.4117080783067464
1.427406982149231
1.427406982149231
1.4269298009751368
1.426452618532167
1.4259754348218077
1.425021063605016
1.42406668733688
1.422157919695108
1.418817528110326
1.413568218453707
1.4064098300945196
1.3978194067803968
1.3892286018091993
1.3754811214106724
1.3355411231063241
1.2723336866652561
1.2588882741663039
1.2453369825413914
1.2111722637739504
1.3183567563021639
2.0626146442124553
1.789548775337624
1.7619953290860995
1.6090675608673952
1.5413574953795244
1.5252372492257882
1.53286496665799
1.5446422533368538
1.5470632522794634
1.5398943301070551
1.52557576232995
1.4978681403198695
1.4594271857420276
1.4152827763451241
1.3670138149812956
1.314650798458869
1.2587501759970918
1.282811462776364
1.3668993620302803
1.426116918396155
1.4336102212503155
1.4345645464577577
1.43504170712231
1.43504170712231
1.43504170712231
1.4345645464577577
1.4336102212503155
1.432178723766074
1.4288385180429073
1.4245438761016027
1.4178631193031763
1.408318760361166
1.398296662611548
1.3901831542772145
1.3825466061898533
1.374336013405666
1.35556662462662
1.3498872750745559
1.2778956648087574
1.1716980823229357
2.2598400442138016
2.106702825320923
1.9328152083606003
1.7760035819325062
1.6616956685704836
1.5887749281393297
1.5464645768875829
1.5234850741084371
1.5123855080484145
1.4960436840726141
1.4691891559117545
1.4379273429366908
1.406789727743899
1.3779542714326634
1.350423804214124
1.3162533257501416
1.2629036750859786
1.296516016046862
1.3930606126777823
1.4355188664920009
1.4407675336596155
1.4421989608484151
1.443153239053764
1.4436303761755995
1.437605727974482
1.4275311755455908
1.41700158439322
1.405910971208228
1.3943393448330401
1.382294035640685
1.369201255266494
1.355641522822125
1.344356006283659
1.3312639115664122
1.3151904382866142
1.301948879202545
1.2928672897269367
1.2870699141526472
1.2753710407016923
1.239618086076769
-2.0609937609628664
0.026768123023008593
0.8075291720830159
1.1176992874770928
1.2441060249097247
1.295531053824745
1.3119826689651328
1.3174894550404082
1.3170471380467708
1.314746801970146
1.3130722132288686
1.3145536029898461
1.3204002354965843
1.3233023512379176
1.2793778529577928
1.3377456089063924
1.4278841620528864
1.4426761006108126
1.4484016743948673
1.4503101563014185
1.4422833758935463
1.4296241214594754
1.4172987325124253
1.4048454576527294
1.3926751671251918
1.3807193454855635
1.3697283028101717
1.361096169525952
1.3555573680588553
1.352577132796784
1.351827389542771
1.352093264277774
1.3523246089068883
1.3553096698247222
1.3676850281718196
1.407454857848488
1.494732821578079
1.2930058767728734
-1.5770206704582883
0.04784905373379876
0.6942187803073628
0.9724732789917493
1.1013273318409675
1.1566743786906557
1.1787544174531723
1.1879935584559806
1.2002275901322903
1.2153003161310503
1.2326462962291183
1.2543288938946358
1.2830457029192759
1.3201503872284326
1.289709570983952
1.3885788842500972
1.4421989608484151
1.4407138278809757
1.4378798178832184
1.423329055232772
1.4097221628730816
1.399000493282467
1.3903324255211313
1.3831120991450376
1.3775573413619884
1.3735883205424049
1.3707759672670645
1.369491510640358
1.370943546935666
1.3756260937412161
1.3852680640407031
1.3998918351658907
1.4143014377275684
1.4257593978853937
1.4388490899166981
1.479297605163249
1.4160600486774135
1.3438471966341377
-0.7510909198418839
-0.82440137405381
-0.7406438652185335
0.3967857572895082
0.8577643160389502
1.1213342034172227
1.1997273955758643
1.150313177277066
1.1257554003870613
1.1127513334901922
1.1088969733855802
1.1115430362355672
1.1172347708258232
1.1233690090744648
1.1264015823722169
1.1254525058547296
1.1219808636427542
1.2613939425818088
1.293594530613601
1.2980080014040605
1.2992961193612849
1.2996276154314375
1.29926703097298
1.2994181346662195
1.2989423784898293
1.2998300549863289
1.301511607976285
1.3055530726380848
1.3115878472214124
1.3205556987783713
1.3347836540259772
1.3534404626908287
1.383258876628425
1.4318974812465757
1.5003998068452797
1.5094619202873623
1.4665506004918876
1.401660129185526
1.350328469511115
1.3679357390938955
)
;

boundaryField
{
    ".*"
    {
        type            zeroGradient;
    }
}


// ************************************************************************* //
