/*--------------------------------*- C++ -*----------------------------------*\
  =========                 |
  \\      /  F ield         | OpenFOAM: The Open Source CFD Toolbox
   \\    /   O peration     | Website:  https://openfoam.org
    \\  /    A nd           | Version:  6
     \\/     M anipulation  |
\*---------------------------------------------------------------------------*/
FoamFile
{
    version     2.0;
    format      ascii;
    class       volScalarField;
    location    "200";
    object      alphat;
}
// * * * * * * * * * * * * * * * * * * * * * * * * * * * * * * * * * * * * * //

dimensions      [1 -1 -1 0 0 0 0];

internalField   nonuniform List<scalar> 
459
(
0.00184583
0.0020721
0.00217092
0.00230509
0.00244778
0.00256105
0.00261337
0.00260048
0.00252541
0.00233997
0.00217142
0.00199021
0.00177942
0.00159465
0.00139031
0.000818634
0.000962128
0.00113122
0.00124373
0.00126909
0.00124197
0.00116398
0.00107971
0.0010039
0.000937892
0.000880516
0.00083049
0.000786485
0.00074762
0.000712343
0.000678804
0.000644323
0.000608681
0.000550701
0.00233816
0.00670123
0.00709127
0.00829957
0.00928619
0.00997033
0.0104571
0.0107385
0.0107821
0.0105032
0.00996993
0.00925626
0.00833273
0.00666311
0.0044413
0.00168036
0.00138368
0.00079417
0.00185807
0.00324056
0.00431138
0.00497121
0.00491691
0.00338618
0.0027774
0.00238876
0.00211311
0.0019078
0.00174902
0.00162345
0.0015052
0.00137833
0.00125594
0.001147
0.00118499
0.000626128
0.00274132
0.0095117
0.00928263
0.010107
0.0105947
0.0109747
0.0114041
0.0118542
0.0121901
0.0122456
0.0120478
0.0116133
0.0109379
0.0097213
0.00782593
0.00500743
0.00163843
0.00092149
0.00200735
0.00344075
0.00501227
0.00613822
0.00592566
0.00157523
0.0013687
0.00119929
0.0010626
0.000952469
0.00086335
0.000790808
0.000733122
0.000690887
0.000778628
0.00092884
0.00133588
0.000674606
0.00312655
0.0119505
0.0107701
0.0109468
0.0106939
0.0106332
0.0109689
0.0115215
0.012054
0.0123838
0.012433
0.0122209
0.0117841
0.0110223
0.00976379
0.00769456
0.00408723
0.00183331
0.00216421
0.00330046
0.0050618
0.00683983
0.00802049
0.00752387
0.00179045
0.00161866
0.00148431
0.00137489
0.00127814
0.00118701
0.00109692
0.00100408
0.000901723
0.000818355
0.000883847
0.00149282
0.000711838
0.00349742
0.0143866
0.0132739
0.0120426
0.0108005
0.0103646
0.0106159
0.0112667
0.0119677
0.0124538
0.0126113
0.0124676
0.0121087
0.0115875
0.0108431
0.00969684
0.00788112
0.00701259
0.0077201
0.00881693
0.00996378
0.010819
0.0111846
0.0107983
0.00878139
0.00763341
0.00685004
0.00608455
0.00531338
0.00452838
0.00372801
0.00292408
0.00214046
0.00147052
0.00115244
0.00144422
0.000842036
0.000774954
0.000920042
0.00103201
0.00371354
0.0153014
0.0145688
0.0119106
0.0104062
0.0100276
0.0104886
0.0113905
0.0123047
0.0129144
0.0131049
0.0129526
0.0126311
0.0123324
0.0120803
0.0118046
0.0114575
0.0117012
0.0126219
0.0133444
0.0137474
0.0137753
0.013439
0.0127401
0.0116143
0.0105153
0.00943001
0.00836384
0.00730521
0.00623966
0.00515579
0.0040724
0.00303387
0.00213486
0.00160727
0.00149646
0.00109516
0.000975714
0.0014171
0.00108508
0.0036912
0.0107148
0.0100087
0.00904558
0.00882317
0.00944289
0.0106725
0.0121066
0.0132959
0.0139596
0.0140856
0.0139026
0.0137882
0.0138454
0.0140433
0.0142758
0.0145605
0.0150996
0.015676
0.0158255
0.0155797
0.0150113
0.014204
0.0132252
0.0121013
0.0109619
0.00985178
0.00878243
0.00774219
0.00671507
0.00567081
0.00465146
0.00368709
0.00282014
0.00223851
0.00190413
0.00156839
0.00150149
0.00153903
0.00123565
0.003548
0.00542284
0.00573938
0.00639707
0.00786433
0.0100036
0.0122782
0.0141427
0.0151889
0.0154151
0.0152498
0.0154459
0.0155179
0.0156759
0.0158825
0.0160957
0.0163269
0.0165555
0.0165801
0.0162026
0.0154607
0.0144711
0.0133383
0.0121305
0.0109156
0.00976909
0.00869998
0.00770101
0.00677296
0.00592371
0.00515793
0.00447927
0.0038685
0.00328948
0.00287242
0.00276925
0.002907
0.0035503
0.00470585
0.00191014
0.00340416
0.00351284
0.00493473
0.00929956
0.0131431
0.0157363
0.0169641
0.0173565
0.0170294
0.0163939
0.0159531
0.0160699
0.0162363
0.0163071
0.0163144
0.0162857
0.0161959
0.0159511
0.0154318
0.0145886
0.0134801
0.0122088
0.0108684
0.00953877
0.00827988
0.00711763
0.0060444
0.00507084
0.0042385
0.0035887
0.00312816
0.00282869
0.00265363
0.0025795
0.00259129
0.00265986
0.00269717
0.00262842
0.00246286
0.0017454
0.00206311
0.00947385
0.0150378
0.0162992
0.0162123
0.0157724
0.0153616
0.0151192
0.0150824
0.0151636
0.0151343
0.0149901
0.0147786
0.0144912
0.0140685
0.0134352
0.0125483
0.0114219
0.0101203
0.00873301
0.00736218
0.00611129
0.00505108
0.00420335
0.00356194
0.00311023
0.00281903
0.00264944
0.00256455
0.00253811
0.00255458
0.00260172
0.00265767
0.00267914
0.00260726
0.00241216
0.00210096
0.00137863
0.00331463
0.0114533
0.0127262
0.0125923
0.0122655
0.0119856
0.0117572
0.0115638
0.0113878
0.0112064
0.0109999
0.0107732
0.0105036
0.0101359
0.00960778
0.00888029
0.00796357
0.00691637
0.00583811
0.00484895
0.00404452
0.0034558
0.00305649
0.00280037
0.00264651
0.00256437
0.00253247
0.00253727
0.00257176
0.00263297
0.00271859
0.00282153
0.00292238
0.00299536
0.00299357
0.00300075
0.00260529
0.00139471
0.00238599
0.00250353
0.00259637
0.00241835
0.00222655
0.00212397
0.00204043
0.00195789
0.00187468
0.00179524
0.00172228
0.00165497
0.00159049
0.00152508
0.0014544
0.0013749
0.00128567
0.00119027
0.00109698
0.00101564
0.0009535
0.00091276
0.000891302
0.000885104
0.000890381
0.000904515
0.000926029
0.000954242
0.000989004
0.00103051
0.0010792
0.00113574
0.00120107
0.00127616
0.00136116
0.00146898
0.00151425
0.00148182
0.00137592
0.00126666
)
;

boundaryField
{
    floor
    {
        type            compressible::alphatWallFunction;
        Prt             0.85;
        value           nonuniform List<scalar> 
29
(
0.000195998
0.000116347
0.000136826
0.000160507
0.000176039
0.000179522
0.000175805
0.000165056
0.000153349
0.000142727
0.000133403
0.000125235
0.000118064
0.000111713
0.000106069
0.000100916
9.59882e-05
9.08914e-05
8.55879e-05
7.68775e-05
7.68766e-05
8.81907e-05
9.53739e-05
0.00010085
0.000195996
0.000116345
0.000112814
0.000131035
0.000255102
)
;
    }
    ceiling
    {
        type            compressible::alphatWallFunction;
        Prt             0.85;
        value           nonuniform List<scalar> 
43
(
0.000326904
0.000341885
0.000353666
0.000331052
0.000306474
0.000293237
0.000282408
0.000271661
0.000260776
0.000250337
0.000240703
0.000231774
0.000223184
0.000214428
0.000204918
0.000194158
0.000181996
0.000168886
0.000155946
0.000144561
0.000135791
0.000130005
0.000126946
0.00012606
0.000126814
0.00012883
0.000131891
0.000135893
0.000140805
0.000146643
0.000153457
0.000161326
0.000170362
0.000180679
0.000192275
0.000206869
0.000212963
0.000208605
0.000194289
0.000179391
0.000454248
0.00046739
0.000443398
)
;
    }
    sWall
    {
        type            compressible::alphatWallFunction;
        Prt             0.85;
        value           uniform 0.000325736;
    }
    nWall
    {
        type            compressible::alphatWallFunction;
        Prt             0.85;
        value           nonuniform List<scalar> 6(0.000146485 0.000153897 0.000174718 0.000194314 0.000196492 0.000179037);
    }
    sideWalls
    {
        type            empty;
    }
    glass1
    {
        type            compressible::alphatWallFunction;
        Prt             0.85;
        value           nonuniform List<scalar> 9(0.000249954 0.000312934 0.000363592 0.000411364 0.000456851 0.000483225 0.000480701 0.000462602 0.000442838);
    }
    glass2
    {
        type            compressible::alphatWallFunction;
        Prt             0.85;
        value           nonuniform List<scalar> 2(0.000263003 0.000241619);
    }
    sun
    {
        type            compressible::alphatWallFunction;
        Prt             0.85;
        value           nonuniform List<scalar> 
14
(
0.000256768
0.000286294
0.000299083
0.000316352
0.0003346
0.000349003
0.000355629
0.000353993
0.000344468
0.000320809
0.000299138
0.000275635
0.000248003
0.000223484
)
;
    }
    heatsource1
    {
        type            compressible::alphatWallFunction;
        Prt             0.85;
        value           nonuniform List<scalar> 3(0.000110257 0.000131095 0.000146912);
    }
    heatsource2
    {
        type            compressible::alphatWallFunction;
        Prt             0.85;
        value           nonuniform List<scalar> 4(0.00023521 0.000195404 0.000195402 0.000229631);
    }
    Table_master
    {
        type            compressible::alphatWallFunction;
        Prt             0.85;
        value           nonuniform List<scalar> 9(0.000221197 0.000193363 0.000170177 0.000151199 0.000135701 0.000123006 0.000112558 0.000104168 9.7974e-05);
    }
    Table_slave
    {
        type            compressible::alphatWallFunction;
        Prt             0.85;
        value           nonuniform List<scalar> 9(0.000249781 0.000227006 0.000209007 0.000194213 0.000181023 0.000168493 0.000155999 0.000142998 0.0001285);
    }
    inlet
    {
        type            fixedValue;
        value           uniform 1.94e-05;
    }
    outlet
    {
        type            zeroGradient;
    }
}


// ************************************************************************* //
