/*--------------------------------*- C++ -*----------------------------------*\
  =========                 |
  \\      /  F ield         | OpenFOAM: The Open Source CFD Toolbox
   \\    /   O peration     | Website:  https://openfoam.org
    \\  /    A nd           | Version:  6
     \\/     M anipulation  |
\*---------------------------------------------------------------------------*/
FoamFile
{
    version     2.0;
    format      ascii;
    class       surfaceScalarField;
    location    "400";
    object      phi;
}
// * * * * * * * * * * * * * * * * * * * * * * * * * * * * * * * * * * * * * //

dimensions      [1 0 -1 0 0 0 0];

internalField   nonuniform List<scalar> 
852
(
-0.00290464
0.00296767
-0.00373152
0.000826908
-0.00444122
0.00070973
-0.00504881
0.000607624
-0.00551641
0.00046764
-0.00582116
0.000304777
-0.00593847
0.000117343
-0.00583953
-9.89058e-05
-0.00549675
-0.00034275
-0.00490843
-0.000588286
-0.00411562
-0.000792781
-0.00319519
-0.000920395
-0.00222454
-0.000970619
-0.00120829
-0.00101622
-0.00120588
-0.000564197
0.000568621
-7.68971e-05
-0.000487263
0.000531732
-0.000608592
0.000912374
-0.000380604
0.00114339
-0.000230974
0.00128372
-0.000140295
0.00134998
-6.62242e-05
0.00137131
-2.1284e-05
0.00137425
-2.90136e-06
0.00136886
5.42082e-06
0.00135787
1.10297e-05
0.00134203
1.588e-05
0.00131973
2.23458e-05
0.00128404
3.57256e-05
0.00121615
6.79331e-05
0.0010862
0.000129995
0.000896978
0.000189262
0.000740034
0.000156987
0.000746186
-0.00208025
0.00521619
-0.00299169
0.00173839
-0.00377254
0.00149061
-0.00438913
0.00122424
-0.00485727
0.000935818
-0.00516943
0.000616968
-0.00530334
0.000251288
-0.00522915
-0.000173071
-0.00492292
-0.000648942
-0.00438912
-0.00112206
-0.0036782
-0.00150367
-0.00287184
-0.00172672
-0.00206075
-0.00178167
-0.0013771
-0.00169984
-0.00113774
-0.00144521
-0.000309177
-0.000828586
-0.000309195
0.000866987
-0.000287466
0.00106413
-0.000684372
0.00111817
-0.000662592
0.00123975
-0.000502153
0.00135516
-0.000346337
0.00143044
-0.000215541
0.00143644
-7.21865e-05
0.0014337
-1.85091e-05
0.00143269
-1.84598e-06
0.00143182
6.32877e-06
0.00143042
1.24684e-05
0.00142848
1.78592e-05
0.00142534
2.55325e-05
0.00141788
4.32179e-05
0.00137969
0.000106169
0.00121937
0.00029036
0.000946938
0.000461731
0.000631735
0.000472232
0.00139265
-0.00148172
0.00695326
-0.00233427
0.00259098
-0.00305669
0.00221306
-0.00360371
0.00177129
-0.00403087
0.00136302
-0.00433197
0.000918101
-0.00447736
0.000396709
-0.00442579
-0.00022461
-0.00414383
-0.000930861
-0.00364207
-0.00162378
-0.00298611
-0.00215961
-0.00226644
-0.00244636
-0.00157244
-0.00247564
-0.00099502
-0.00227723
-0.000572366
-0.00186783
-0.000143477
-0.00125744
-0.00045264
0.00101794
-0.00129186
0.001241
-0.000907399
0.00124647
-0.000668026
0.00127986
-0.000535509
0.00134288
-0.000409317
0.00141729
-0.000289915
0.0013453
0.00132698
0.00132533
0.00133185
0.00134451
0.00136257
0.00138829
0.00143171
0.00153807
0.0012686
0.000559874
0.000939711
0.000790659
0.000554031
0.000857955
0.00196837
-0.00106385
0.00834508
-0.00180481
0.00333197
-0.00230902
0.00271731
-0.00270518
0.00216748
-0.00303682
0.00169469
-0.00328989
0.00117121
-0.00342561
0.000532461
-0.00338309
-0.00026709
-0.00311403
-0.00119989
-0.00264613
-0.00209165
-0.00206813
-0.00273757
-0.00147166
-0.00304279
-0.00092331
-0.00302396
-0.000464058
-0.00273646
-8.15454e-05
-0.00225031
0.000304488
-0.00164344
0.000896522
-0.00104464
0.00159807
-0.000688042
0.00111769
-0.000811447
0.00106973
-0.000859406
0.00108692
-0.000685181
0.00110353
-0.000552075
0.00113782
-0.000443571
0.00117385
-0.000325916
0.00136976
-0.000196019
0.00153935
-0.000169711
0.00170255
-0.000163319
0.00185219
-0.000149759
0.00196682
-0.000114748
0.00201396
-4.72521e-05
0.00195753
5.63152e-05
0.00176194
0.000195473
0.00137383
0.000387988
0.00118119
0.00075255
0.000804725
0.00116717
0.000195537
0.00146718
0.00219197
-0.000762347
0.00949615
-0.00138194
0.00395159
-0.00153428
0.00286969
-0.00170985
0.00234308
-0.00189276
0.00187764
-0.00204693
0.00132541
-0.00212983
0.000615401
-0.00205878
-0.000338107
-0.00178548
-0.00147316
-0.00137504
-0.00250205
-0.000926735
-0.00318584
-0.000511216
-0.00345828
-0.000164328
-0.00337082
0.000105364
-0.00300612
0.000315235
-0.00246016
0.000519249
-0.00184743
0.000763157
-0.00128852
0.000975324
-0.000900175
0.000964771
-0.00080086
0.000861819
-0.000756418
0.00082003
-0.000643357
0.000809692
-0.000541701
0.000828437
-0.00046228
0.000890248
-0.00038769
0.00102417
-0.000329908
0.00116718
-0.000312685
0.00131378
-0.000309878
0.00145752
-0.000293459
0.0015838
-0.000240998
0.00166761
-0.000131028
0.00167595
4.80125e-05
0.0015892
0.00028226
0.00141562
0.000561607
0.0012326
0.000935601
0.00100721
0.0013926
0.000492243
0.00198219
0.000214428
0.00246983
-0.00118149
0.00139576
-0.00163255
0.000450893
-0.00157567
-0.000672478
0.0106082
-0.00114488
0.00442403
-0.000785701
0.00251054
-0.00063195
0.00218936
-0.000636494
0.00188222
-0.000661405
0.00135035
-0.000625139
0.00057917
-0.000452469
-0.000510741
-0.000167127
-0.00175846
0.000133432
-0.00280257
0.000385507
-0.00343788
0.000561144
-0.00363388
0.000651746
-0.00346139
0.000675316
-0.00302966
0.000664459
-0.00244927
0.00065207
-0.00183501
0.000656999
-0.00129341
0.00066716
-0.000910301
0.000606058
-0.000739723
0.000503348
-0.000653673
0.000437227
-0.0005772
0.000411397
-0.000515834
0.000421723
-0.000472569
0.00047382
-0.00043975
0.00056628
-0.000422332
0.000679499
-0.000425868
0.000804848
-0.00043519
0.000939245
-0.00042782
0.00107794
-0.000379659
0.00120914
-0.00026219
0.00130315
-4.5967e-05
0.00133678
0.000248663
0.00132848
0.000569946
0.00133095
0.000933172
0.00140226
0.00132132
0.00155166
0.00183284
0.00201391
0.00200762
0.0022782
0.0011315
0.00190482
0.000824316
0.00039702
-0.000828966
0.0119215
-0.000791242
0.00438634
0.000251931
0.0014674
0.000718653
0.00172267
0.000839753
0.00176116
0.000936862
0.00125328
0.00115743
0.000358632
0.00145278
-0.000806051
0.00168394
-0.00198959
0.00178943
-0.00290802
0.00177496
-0.00342339
0.00165645
-0.00351534
0.00144758
-0.00325249
0.00118353
-0.00276558
0.000907177
-0.00217288
0.000655963
-0.00158376
0.00045343
-0.00109084
0.000305709
-0.000762544
0.000176178
-0.000610156
6.47598e-05
-0.000542219
-1.1648e-05
-0.000500756
-5.2622e-05
-0.000474824
-6.32668e-05
-0.000461888
-4.40087e-05
-0.000458972
1.97563e-06
-0.00046828
6.60745e-05
-0.000489931
0.000143897
-0.000512976
0.000237735
-0.000521623
0.000353909
-0.000495797
0.000500217
-0.000408462
0.000678909
-0.000224624
0.000855017
7.25909e-05
0.0010171
0.000407894
0.00121954
0.000730772
0.00152893
0.00101196
0.00203289
0.00132892
0.00277528
0.00126526
0.00335911
0.000547709
0.00342836
0.000755105
0.00389786
0.00253308
0.00992874
0.00313836
0.00378109
0.00329076
0.00131504
0.00333251
0.00168095
0.00328748
0.00180622
0.00334104
0.00119975
0.00354745
0.000152247
0.00373027
-0.000988833
0.00370488
-0.00196417
0.00347724
-0.00268034
0.00310071
-0.00304682
0.00261788
-0.00303248
0.00205557
-0.00269015
0.00147031
-0.00218029
0.000919055
-0.0016216
0.00045103
-0.0011157
9.26992e-05
-0.000732478
-0.000142568
-0.00052724
-0.000299672
-0.000453016
-0.000412854
-0.000429
-0.00049542
-0.000418153
-0.000555587
-0.00041462
-0.000599263
-0.000418175
-0.0006289
-0.000429299
-0.00064778
-0.000449364
-0.000660664
-0.000477011
-0.000668684
-0.000504921
-0.000668221
-0.000522051
-0.000649078
-0.000514905
-0.000589748
-0.000467757
-0.000452969
-0.000361368
-0.000210817
-0.000169526
8.18365e-05
0.000115275
0.00040542
0.000407224
0.000783488
0.000633932
0.00127655
0.000835894
0.00174758
0.000794267
0.00177706
0.000518268
0.000736731
0.00179547
0.00494806
0.0105256
0.0143029
0.0127155
0.00290244
0.0109697
0.00342679
0.009627
0.00314898
0.00870934
0.00211744
0.00785077
0.00101084
0.00686784
-5.86782e-06
0.00580171
-0.000897995
0.00481256
-0.00169114
0.00390897
-0.0021432
0.00304525
-0.00216873
0.00214628
-0.00179114
0.00128463
-0.00131862
0.000533049
-0.000869985
-4.84799e-05
-0.000534134
-0.000426625
-0.000354296
-0.000642102
-0.000311726
-0.00078259
-0.000312491
-0.000890515
-0.000321038
-0.000981866
-0.000326766
-0.0010658
-0.00033065
-0.00114866
-0.000335278
-0.00123512
-0.000342798
-0.00133016
-0.000354295
-0.00143923
-0.000367901
-0.00156697
-0.000377147
-0.00171795
-0.000371031
-0.00189797
-0.000334854
-0.00211413
-0.000251556
-0.00237482
-0.000100643
-0.00267634
0.000132023
-0.00301896
0.00045794
-0.00349606
0.000884354
-0.00425461
0.00139252
-0.00535215
0.00193347
-0.00690153
0.00234369
-0.00878497
0.00240174
-0.0083629
0.00137343
-0.0030677
0.00445825
0.00440845
0.00439958
0.00348549
0.00545698
0.00209162
0.00568324
0.00189122
0.00532931
0.00136482
0.00475785
0.000565629
0.00407103
-0.000211136
0.0034932
-0.00111328
0.00285623
-0.00150621
0.0021519
-0.00146436
0.00124098
-0.0008802
0.000348827
-0.000426427
-0.000327267
-0.000193855
-0.000751502
-0.000109863
-0.000985368
-0.000120393
-0.0011277
-0.00016936
-0.00123245
-0.000207698
-0.00132561
-0.00022784
-0.00141678
-0.000235567
-0.0015114
-0.000235991
-0.0016145
-0.000232142
-0.0017312
-0.000226054
-0.00186666
-0.000218799
-0.00202481
-0.000209717
-0.00220622
-0.000195703
-0.00240637
-0.000170846
-0.00261437
-0.000126815
-0.00281005
-5.58353e-05
-0.00296993
5.92694e-05
-0.00309195
0.00025408
-0.00318576
0.000551787
-0.00326594
0.000964575
-0.00333981
0.00146642
-0.00334695
0.00194064
-0.00315768
0.00215446
-0.00200248
0.00124657
1.82102e-05
-0.000647215
-0.00296232
-0.0008245
0.0052972
0.000739576
0.00192144
0.00145004
0.00138118
0.00199029
0.001351
0.00216575
0.00118939
0.00205224
0.000679182
0.00182792
1.32176e-05
0.00161493
-0.000900276
0.00106338
-0.000954643
0.000353161
-0.00075412
-0.000408365
-0.00011864
-0.000980209
0.000145454
-0.00126689
9.28692e-05
-0.00140052
2.37984e-05
-0.001478
-4.28764e-05
-0.00154839
-9.89327e-05
-0.00162576
-0.000130291
-0.00171064
-0.000142919
-0.00179932
-0.000146848
-0.00188912
-0.000146162
-0.00197919
-0.000142027
-0.00207017
-0.000135037
-0.00216347
-0.000125463
-0.00226034
-0.000112816
-0.00236053
-9.54705e-05
-0.00246091
-7.04318e-05
-0.00255476
-3.29306e-05
-0.00263106
2.05012e-05
-0.00266418
9.24256e-05
-0.00261503
0.000204972
-0.00244776
0.000384553
-0.0021339
0.000650752
-0.00167981
0.00101237
-0.0010571
0.00131797
6.81248e-05
0.00102927
0.00185855
-0.000543822
0.0034781
-0.00226673
0.00061003
-0.00841479
-0.0112874
-0.00593694
-0.00398349
-0.00257639
-0.00120214
9.37123e-06
0.000711071
0.000748961
-0.000126443
-0.00106033
-0.00179502
-0.00189522
-0.00173216
-0.00162179
-0.00158025
-0.00160509
-0.00168579
-0.00179774
-0.00192226
-0.0020507
-0.00217844
-0.00230207
-0.00241876
-0.00252598
-0.00262072
-0.00269835
-0.00275127
-0.0027671
-0.00273
-0.00262157
-0.00240125
-0.00200203
-0.00133734
-0.000311781
0.00101851
0.00205976
0.00152861
-0.000725664
)
;

boundaryField
{
    floor
    {
        type            calculated;
        value           nonuniform List<scalar> 
29
(
0
0
0
0
0
0
0
0
0
0
0
0
0
0
0
0
0
0
0
0
-6.10957e-06
-1.46884e-05
-2.16461e-05
-2.80155e-05
-2.37102e-06
-4.38649e-06
-1.0862e-05
-1.35061e-05
-1.34771e-05
)
;
    }
    ceiling
    {
        type            calculated;
        value           nonuniform List<scalar> 
43
(
-5.72608e-05
-5.51315e-05
-5.32747e-05
-3.19852e-05
-2.58883e-05
-2.32126e-05
-2.20763e-05
-2.24825e-05
-2.46469e-05
-2.49092e-05
-2.07398e-05
-1.93871e-05
-1.84016e-05
-1.75669e-05
-1.74587e-05
-1.77094e-05
-1.79974e-05
-1.81951e-05
-1.83066e-05
-1.83579e-05
-1.83785e-05
-1.83802e-05
-1.83607e-05
-1.83086e-05
-1.82079e-05
-1.80426e-05
-1.78007e-05
-1.74758e-05
-1.70643e-05
-1.65592e-05
-1.59677e-05
-1.53199e-05
-1.46257e-05
-1.39002e-05
-1.3156e-05
-1.22811e-05
-1.1942e-05
-1.26362e-05
-1.24172e-05
-9.79955e-06
6.44653e-06
3.83742e-06
-6.42421e-05
)
;
    }
    sWall
    {
        type            calculated;
        value           uniform -0.000269309;
    }
    nWall
    {
        type            calculated;
        value           nonuniform List<scalar> 6(-5.70399e-05 -6.783e-05 -7.24367e-05 -8.71299e-05 -9.42108e-05 -0.000105798);
    }
    sideWalls
    {
        type            empty;
        value           nonuniform 0();
    }
    glass1
    {
        type            calculated;
        value           nonuniform List<scalar> 9(-6.29942e-05 -0.000168246 -0.00025532 -0.000327943 -0.000388682 -0.000439544 -0.000484353 -0.000540245 -0.000603294);
    }
    glass2
    {
        type            calculated;
        value           nonuniform List<scalar> 2(-0.000313431 -0.0003471);
    }
    sun
    {
        type            calculated;
        value           uniform 0;
    }
    heatsource1
    {
        type            calculated;
        value           nonuniform List<scalar> 3(2.05547e-07 2.0538e-07 2.05392e-07);
    }
    heatsource2
    {
        type            calculated;
        value           nonuniform List<scalar> 4(5.13866e-08 5.15301e-08 0 0);
    }
    Table_master
    {
        type            calculated;
        value           nonuniform List<scalar> 9(-1.54159e-07 -1.54223e-07 -1.54245e-07 -1.54258e-07 -1.54268e-07 -1.54275e-07 -1.54278e-07 -1.54275e-07 -1.54249e-07);
    }
    Table_slave
    {
        type            calculated;
        value           nonuniform List<scalar> 9(1.54098e-07 1.54083e-07 1.54033e-07 1.53986e-07 1.53952e-07 1.53943e-07 1.53953e-07 1.53984e-07 1.54065e-07);
    }
    inlet
    {
        type            calculated;
        value           uniform -0.00596424;
    }
    outlet
    {
        type            calculated;
        value           nonuniform List<scalar> 2(0.00874139 0.0029278);
    }
}


// ************************************************************************* //
