// -*- C++ -*-
// File generated by PyFoam - sorry for the ugliness

FoamFile
{
 version 2.0;
 format ascii;
 class volVectorField;
 location "400";
 object U;
}

dimensions [ 0 1 -1 0 0 0 0 ];

internalField nonuniform List<vector> 459
(
  (0.0536494 0.0830974 0)
  (-0.161704 0.0199611 0)
  (-0.176833 0.0162531 0)
  (-0.205684 0.0126788 0)
  (-0.228907 0.00825949 0)
  (-0.24572 0.00344011 0)
  (-0.255 -0.00184454 0)
  (-0.255223 -0.00772285 0)
  (-0.245096 -0.0143308 0)
  (-0.224394 -0.021227 0)
  (-0.194031 -0.0274248 0)
  (-0.156221 -0.032198 0)
  (-0.1141 -0.0359497 0)
  (-0.0748488 -0.0407794 0)
  (-0.0595645 -0.0479508 0)
  (0.0230989 0.0113939 0)
  (-0.0156803 -0.0202011 0)
  (0.0120722 -0.0247436 0)
  (0.0296176 -0.0170297 0)
  (0.0437066 -0.0111411 0)
  (0.052672 -0.00718242 0)
  (0.0572427 -0.00431632 0)
  (0.0589482 -0.00276004 0)
  (0.0592112 -0.00207518 0)
  (0.0589656 -0.00173896 0)
  (0.0585435 -0.0015113 0)
  (0.057965 -0.00131533 0)
  (0.0571652 -0.00108522 0)
  (0.0559737 -0.000681564 0)
  (0.0539226 0.00022972 0)
  (0.0500282 0.00207607 0)
  (0.0432513 0.00355027 0)
  (0.043114 0.002789 0)
  (-0.0306046 0.0203218 0)
  (0.243889 0.172592 0)
  (-0.160243 0.0553829 0)
  (-0.145823 0.0477555 0)
  (-0.177148 0.0401864 0)
  (-0.200459 0.0311669 0)
  (-0.217485 0.020948 0)
  (-0.227359 0.00912297 0)
  (-0.228574 -0.00470238 0)
  (-0.219729 -0.020315 0)
  (-0.200934 -0.0359366 0)
  (-0.173427 -0.0488143 0)
  (-0.140116 -0.0567437 0)
  (-0.104884 -0.0594204 0)
  (-0.0732129 -0.0584425 0)
  (-0.0519696 -0.0534927 0)
  (-0.0338091 -0.0319667 0)
  (-0.00923204 -0.00404227 0)
  (0.107578 0.00781788 0)
  (0.0441609 -0.017669 0)
  (0.0400651 -0.0238039 0)
  (0.0490184 -0.0187138 0)
  (0.0560028 -0.012442 0)
  (0.0602441 -0.00713054 0)
  (0.0620454 -0.00194572 0)
  (0.0619738 0.00100494 0)
  (0.0615658 0.00225545 0)
  (0.0613992 0.00277613 0)
  (0.0613737 0.00305663 0)
  (0.0613367 0.00327263 0)
  (0.0612461 0.00357271 0)
  (0.0610654 0.00424765 0)
  (0.0602976 0.00608125 0)
  (0.0567026 0.0114464 0)
  (0.0473869 0.014958 0)
  (0.0518354 0.0140068 0)
  (-0.0784881 0.0452647 0)
  (0.415589 0.259898 0)
  (-0.188566 0.0924382 0)
  (-0.111471 0.0792832 0)
  (-0.144441 0.064146 0)
  (-0.165503 0.0488211 0)
  (-0.181614 0.0320039 0)
  (-0.191747 0.0126403 0)
  (-0.193852 -0.00986206 0)
  (-0.185707 -0.0350077 0)
  (-0.167883 -0.0598569 0)
  (-0.142191 -0.079568 0)
  (-0.11215 -0.0906139 0)
  (-0.0815798 -0.0923709 0)
  (-0.0542865 -0.0860231 0)
  (-0.0330941 -0.0717808 0)
  (-0.0159039 -0.0466144 0)
  (0.00463017 -0.016175 0)
  (0.111559 -0.0529937 0)
  (0.0514734 -0.0429653 0)
  (0.0471736 -0.0324107 0)
  (0.0528364 -0.0239758 0)
  (0.0566052 -0.0172335 0)
  (0.0591377 -0.0121561 0)
  (0.0601767 -0.00938949 0)
  (0.0580932 -0.00672002 0)
  (0.0567289 -0.00539854 0)
  (0.0567053 -0.00469314 0)
  (0.0572826 -0.00424365 0)
  (0.0580325 -0.00391298 0)
  (0.0589691 -0.00357191 0)
  (0.0605022 -0.00293723 0)
  (0.0636473 -0.000234101 0)
  (0.0618714 0.015959 0)
  (0.0477916 0.0258501 0)
  (0.0631593 0.0281611 0)
  (-0.118164 0.0698662 0)
  (0.566196 0.33106 0)
  (-0.232482 0.128016 0)
  (-0.0732256 0.106868 0)
  (-0.108445 0.0851307 0)
  (-0.124481 0.0657549 0)
  (-0.137685 0.0443993 0)
  (-0.146977 0.0188462 0)
  (-0.149249 -0.0120856 0)
  (-0.140854 -0.0471777 0)
  (-0.123606 -0.081259 0)
  (-0.100407 -0.106991 0)
  (-0.0750241 -0.120035 0)
  (-0.0505604 -0.120306 0)
  (-0.0292122 -0.10967 0)
  (-0.0119304 -0.0902651 0)
  (0.00411031 -0.0633034 0)
  (0.0245075 -0.0347222 0)
  (0.0531011 0.0188273 0)
  (0.0622741 -0.0299032 0)
  (0.0484157 -0.0351691 0)
  (0.0447102 -0.0284966 0)
  (0.046253 -0.0230917 0)
  (0.0479234 -0.0181989 0)
  (0.0496295 -0.0124907 0)
  (0.0538969 -0.00884632 0)
  (0.0618445 -0.00788556 0)
  (0.069557 -0.00734297 0)
  (0.0763843 -0.00676119 0)
  (0.0821108 -0.00575156 0)
  (0.085905 -0.00404269 0)
  (0.0862115 -0.00148606 0)
  (0.0812833 0.00221242 0)
  (0.0689638 0.00748345 0)
  (0.0553347 0.0267726 0)
  (0.0389538 0.0422119 0)
  (0.0702602 0.0511626 0)
  (-0.176421 0.0908781 0)
  (0.692866 0.387563 0)
  (-0.279759 0.159758 0)
  (-0.0335634 0.123712 0)
  (-0.0693067 0.0986546 0)
  (-0.0782811 0.0774567 0)
  (-0.0862728 0.0536 0)
  (-0.0928978 0.0237263 0)
  (-0.0932885 -0.0143954 0)
  (-0.0828155 -0.0588166 0)
  (-0.0663556 -0.100677 0)
  (-0.0476616 -0.129911 0)
  (-0.0294877 -0.142663 0)
  (-0.0136344 -0.140359 0)
  (-0.000927469 -0.125932 0)
  (0.00874058 -0.103167 0)
  (0.0171026 -0.0771081 0)
  (0.0266955 -0.0530412 0)
  (0.038052 -0.0381595 0)
  (0.0427101 -0.0411092 0)
  (0.03983 -0.036274 0)
  (0.0358509 -0.0292071 0)
  (0.0345047 -0.0238888 0)
  (0.0347952 -0.0196697 0)
  (0.0365765 -0.0155824 0)
  (0.0406398 -0.0119054 0)
  (0.0467675 -0.0104432 0)
  (0.0531691 -0.00995205 0)
  (0.059435 -0.00912412 0)
  (0.0652821 -0.00702844 0)
  (0.0699991 -0.00291622 0)
  (0.0725528 0.00342999 0)
  (0.0712402 0.0115972 0)
  (0.0657265 0.0217965 0)
  (0.057735 0.0379049 0)
  (0.0427511 0.0560725 0)
  (0.0762296 0.0756114 0)
  (-0.0533255 0.103324 0)
  (0.0489425 0.015125 0)
  (-0.0726748 -0.0382859 0)
  (-0.292043 -0.0625657 0)
  (0.781153 0.436088 0)
  (-0.322067 0.183607 0)
  (-0.00264225 0.12164 0)
  (-0.0267565 0.103702 0)
  (-0.0279399 0.0841649 0)
  (-0.0298619 0.0591979 0)
  (-0.0324351 0.0271433 0)
  (-0.0259477 -0.0170359 0)
  (-0.0112324 -0.0708016 0)
  (0.00265655 -0.117577 0)
  (0.0138242 -0.146245 0)
  (0.02197 -0.155676 0)
  (0.0268686 -0.149539 0)
  (0.0285356 -0.132165 0)
  (0.0281701 -0.107904 0)
  (0.0273412 -0.0814481 0)
  (0.0273169 -0.057585 0)
  (0.0284937 -0.0408046 0)
  (0.0277675 -0.0343187 0)
  (0.0239664 -0.0303334 0)
  (0.0198951 -0.0260827 0)
  (0.0178003 -0.0226665 0)
  (0.01751 -0.0200886 0)
  (0.0188976 -0.017861 0)
  (0.0220394 -0.0162598 0)
  (0.0265685 -0.0160448 0)
  (0.0317137 -0.0162413 0)
  (0.0372439 -0.0157206 0)
  (0.0430404 -0.0134602 0)
  (0.0487998 -0.00835302 0)
  (0.0543108 0.00050536 0)
  (0.0575254 0.0121219 0)
  (0.0580431 0.0254625 0)
  (0.0580881 0.0416125 0)
  (0.0538789 0.0601194 0)
  (0.0837035 0.0844038 0)
  (0.0473669 0.0994486 0)
  (0.100751 0.0651863 0)
  (0.125095 0.0437846 0)
  (-0.141172 -0.0104877 0)
  (0.821149 0.480279 0)
  (-0.341732 0.171705 0)
  (0.0211314 0.0723651 0)
  (0.0309936 0.0913724 0)
  (0.0341659 0.0877915 0)
  (0.035772 0.0614604 0)
  (0.038472 0.022345 0)
  (0.0565268 -0.0315987 0)
  (0.071381 -0.0856607 0)
  (0.0782625 -0.127263 0)
  (0.0790022 -0.151047 0)
  (0.0751635 -0.156583 0)
  (0.0673366 -0.146826 0)
  (0.0562492 -0.126913 0)
  (0.0439052 -0.101552 0)
  (0.0323605 -0.0754266 0)
  (0.0227446 -0.0527475 0)
  (0.0157374 -0.0368779 0)
  (0.0101978 -0.0291597 0)
  (0.00498643 -0.0255131 0)
  (0.000797931 -0.0228921 0)
  (-0.00171244 -0.0210911 0)
  (-0.00274867 -0.0200262 0)
  (-0.00251031 -0.0194097 0)
  (-0.00105784 -0.0193759 0)
  (0.00137993 -0.020107 0)
  (0.0043783 -0.0209643 0)
  (0.00793262 -0.0211217 0)
  (0.0122074 -0.0196281 0)
  (0.0174611 -0.015216 0)
  (0.0241382 -0.0063088 0)
  (0.0337454 0.00743276 0)
  (0.0408223 0.0220277 0)
  (0.0486096 0.0371287 0)
  (0.0557745 0.0525489 0)
  (0.0828021 0.0723817 0)
  (0.0941984 0.0766151 0)
  (0.131762 0.0479615 0)
  (0.174088 0.040372 0)
  (-0.028388 0.0968217 0)
  (0.924193 0.488941 0)
  (-0.0926725 0.154028 0)
  (0.101361 -0.00117785 0)
  (0.157681 0.0190477 0)
  (0.149284 0.0398688 0)
  (0.140177 0.0234455 0)
  (0.141987 -0.0173166 0)
  (0.15995 -0.0592332 0)
  (0.165161 -0.0969433 0)
  (0.157484 -0.126853 0)
  (0.142704 -0.143267 0)
  (0.12358 -0.143857 0)
  (0.100845 -0.130391 0)
  (0.0751666 -0.108683 0)
  (0.049744 -0.0836065 0)
  (0.0277174 -0.0595065 0)
  (0.0101076 -0.0399835 0)
  (-0.00219593 -0.0276204 0)
  (-0.0100398 -0.0225638 0)
  (-0.015614 -0.0206693 0)
  (-0.0197521 -0.0196677 0)
  (-0.0227443 -0.0191657 0)
  (-0.0249129 -0.0190863 0)
  (-0.0264292 -0.0194028 0)
  (-0.0274117 -0.0201903 0)
  (-0.0280634 -0.0214013 0)
  (-0.0285487 -0.0226863 0)
  (-0.0288215 -0.0235354 0)
  (-0.0286264 -0.02333 0)
  (-0.0274638 -0.0213374 0)
  (-0.0243531 -0.0166951 0)
  (-0.0162248 -0.00842814 0)
  (-0.000999205 0.00380258 0)
  (0.0114475 0.0158254 0)
  (0.0239264 0.023799 0)
  (0.0471802 0.0321079 0)
  (0.06593 0.0232177 0)
  (0.0827146 -0.00424237 0)
  (0.14344 0.0535768 0)
  (-0.494985 0.225345 0)
  (1.06506 0.440147 0)
  (0.511318 0.289348 0)
  (0.521546 0.203884 0)
  (0.517573 0.16405 0)
  (0.453427 0.136223 0)
  (0.391949 0.0963936 0)
  (0.355921 0.0495441 0)
  (0.319755 -0.00182145 0)
  (0.273696 -0.049557 0)
  (0.226638 -0.0878144 0)
  (0.185507 -0.109341 0)
  (0.148551 -0.112215 0)
  (0.112088 -0.0989376 0)
  (0.0731814 -0.0781332 0)
  (0.0367426 -0.0559277 0)
  (0.00813298 -0.0367512 0)
  (-0.0126824 -0.0237131 0)
  (-0.0239365 -0.0190201 0)
  (-0.031055 -0.0179827 0)
  (-0.0361571 -0.0179652 0)
  (-0.0403101 -0.0180295 0)
  (-0.0439872 -0.0181143 0)
  (-0.0474999 -0.0183096 0)
  (-0.0510682 -0.0187011 0)
  (-0.0549008 -0.0193412 0)
  (-0.059238 -0.0201424 0)
  (-0.064305 -0.0207986 0)
  (-0.0702849 -0.0208162 0)
  (-0.0773676 -0.0195483 0)
  (-0.0858431 -0.0162205 0)
  (-0.0961849 -0.00993311 0)
  (-0.108702 0.000112745 0)
  (-0.121534 0.0136377 0)
  (-0.136762 0.0294582 0)
  (-0.162575 0.0466921 0)
  (-0.2009 0.0637016 0)
  (-0.256411 0.0757753 0)
  (-0.320714 0.0809884 0)
  (-0.397886 0.0812494 0)
  (-0.673796 0.0736884 0)
  (-0.338203 0.0501014 0)
  (0.157945 0.120015 0)
  (0.257314 0.115451 0)
  (0.248705 0.0878344 0)
  (0.235802 0.0500983 0)
  (0.21529 0.0102663 0)
  (0.191569 -0.0251214 0)
  (0.161565 -0.054348 0)
  (0.135089 -0.0707189 0)
  (0.106764 -0.0711821 0)
  (0.0750995 -0.0560107 0)
  (0.0348132 -0.0380033 0)
  (-0.00300228 -0.0222577 0)
  (-0.0258969 -0.0139799 0)
  (-0.0385149 -0.0118438 0)
  (-0.0459484 -0.012509 0)
  (-0.050934 -0.0137476 0)
  (-0.0550135 -0.0148456 0)
  (-0.0588799 -0.0157178 0)
  (-0.0628035 -0.0164623 0)
  (-0.0669855 -0.0171648 0)
  (-0.0716405 -0.0178699 0)
  (-0.0770028 -0.0185627 0)
  (-0.0832915 -0.0191147 0)
  (-0.09063 -0.0192236 0)
  (-0.0989578 -0.0183839 0)
  (-0.107943 -0.0158937 0)
  (-0.116886 -0.0109322 0)
  (-0.124776 -0.00264451 0)
  (-0.13058 0.00922956 0)
  (-0.134456 0.0249048 0)
  (-0.137155 0.0446899 0)
  (-0.140207 0.0671961 0)
  (-0.144162 0.0884828 0)
  (-0.145116 0.099866 0)
  (-0.120925 0.0872938 0)
  (-0.0203678 0.0262469 0)
  (-0.216401 -0.192339 0)
  (-0.124339 0.240034 0)
  (0.074871 0.143475 0)
  (0.0582363 0.0902564 0)
  (0.0745966 0.0783389 0)
  (0.0899101 0.0616185 0)
  (0.0907573 0.0406005 0)
  (0.084148 0.0212048 0)
  (0.0754334 -0.0240659 0)
  (0.0560694 -0.0405343 0)
  (0.0290679 -0.0325 0)
  (0.00123436 0.0113092 0)
  (-0.0322942 0.0351224 0)
  (-0.0499436 0.0416408 0)
  (-0.0581871 0.044042 0)
  (-0.0622224 0.0433005 0)
  (-0.0650786 0.0412772 0)
  (-0.0681217 0.0402296 0)
  (-0.0715999 0.0401798 0)
  (-0.0753451 0.0406746 0)
  (-0.0791843 0.0414519 0)
  (-0.0830395 0.0423322 0)
  (-0.0869139 0.0431144 0)
  (-0.0908636 0.0435898 0)
  (-0.0949571 0.0435892 0)
  (-0.0992246 0.0430114 0)
  (-0.103618 0.0418128 0)
  (-0.107991 0.0399495 0)
  (-0.111972 0.037227 0)
  (-0.114598 0.034374 0)
  (-0.114231 0.0342869 0)
  (-0.108964 0.0390604 0)
  (-0.0976516 0.0496915 0)
  (-0.0808928 0.0655238 0)
  (-0.0606623 0.081292 0)
  (-0.0407356 0.0863371 0)
  (0.0447511 0.0266247 0)
  (0.152282 -0.0718438 0)
  (-0.05522 -0.0629647 0)
  (-0.135441 -0.367709 0)
  (-0.456495 -0.12107 0)
  (-0.342878 0.10139 0)
  (-0.213571 -0.0111279 0)
  (-0.147731 -0.0346156 0)
  (-0.0814572 -0.0307183 0)
  (-0.0274281 -0.0385453 0)
  (0.0159033 -0.0818889 0)
  (0.0277722 -0.143301 0)
  (0.0276075 -0.179321 0)
  (-0.034161 -0.163112 0)
  (-0.0688749 -0.148654 0)
  (-0.0806399 -0.136717 0)
  (-0.0768644 -0.127905 0)
  (-0.0719255 -0.13666 0)
  (-0.0684675 -0.148715 0)
  (-0.067972 -0.157132 0)
  (-0.0703882 -0.161371 0)
  (-0.0746881 -0.16307 0)
  (-0.0798524 -0.163301 0)
  (-0.0853353 -0.162879 0)
  (-0.0908734 -0.162098 0)
  (-0.0962997 -0.160917 0)
  (-0.101487 -0.159127 0)
  (-0.106335 -0.156431 0)
  (-0.110735 -0.1525 0)
  (-0.11453 -0.147002 0)
  (-0.11745 -0.13958 0)
  (-0.119108 -0.129789 0)
  (-0.118992 -0.117001 0)
  (-0.116287 -0.101487 0)
  (-0.109146 -0.084678 0)
  (-0.094554 -0.066503 0)
  (-0.0701752 -0.0466054 0)
  (-0.0371083 -0.024695 0)
  (0.0136652 -0.00145767 0)
  (0.0560618 -0.0139589 0)
  (0.116566 -0.076194 0)
  (0.125603 -0.122223 0)
  (-0.528015 -0.0129372 0)
)
;

boundaryField
{
  floor
  {
    type noSlip;
  }
  ceiling
  {
    type noSlip;
  }
  sWall
  {
    type noSlip;
  }
  nWall
  {
    type noSlip;
  }
  sideWalls
  {
    type empty;
  }
  glass1
  {
    type noSlip;
  }
  glass2
  {
    type noSlip;
  }
  sun
  {
    type noSlip;
  }
  heatsource1
  {
    type noSlip;
  }
  heatsource2
  {
    type noSlip;
  }
  Table_master
  {
    type noSlip;
  }
  Table_slave
  {
    type noSlip;
  }
  inlet
  {
    type fixedValue;
    value uniform (0.277164 -0.114805 0);
  }
  outlet
  {
    type zeroGradient;
  }
} 	// ************************************************************************* //

