/*--------------------------------*- C++ -*----------------------------------*\
  =========                 |
  \\      /  F ield         | OpenFOAM: The Open Source CFD Toolbox
   \\    /   O peration     | Website:  https://openfoam.org
    \\  /    A nd           | Version:  6
     \\/     M anipulation  |
\*---------------------------------------------------------------------------*/
FoamFile
{
    version     2.0;
    format      ascii;
    class       volScalarField;
    location    "500";
    object      epsilon;
}
// * * * * * * * * * * * * * * * * * * * * * * * * * * * * * * * * * * * * * //

dimensions      [0 2 -3 0 0 0 0];

internalField   nonuniform List<scalar> 
459
(
0.000548129
0.000724837
0.000775598
0.000898675
0.00102561
0.00115782
0.00130297
0.00143753
0.00152722
0.00154879
0.00148795
0.00134338
0.00112716
0.000869565
0.000627457
5.22507e-05
9.05576e-05
0.000132416
0.000136589
0.000125233
0.000109548
9.02265e-05
7.31651e-05
5.96889e-05
4.92509e-05
4.11239e-05
3.47249e-05
2.96207e-05
2.55071e-05
2.20825e-05
1.9095e-05
1.63053e-05
1.44206e-05
1.08892e-05
0.00134629
0.00187194
0.000685751
0.000672397
0.000713566
0.000780241
0.000876847
0.000987963
0.00107926
0.00112078
0.00109692
0.00100833
0.00086834
0.00070269
0.000573104
0.000693244
0.000187343
5.88986e-05
0.000141215
0.000157852
0.000148144
0.000128976
0.000109711
0.000100456
8.10073e-05
6.37262e-05
5.01298e-05
3.97298e-05
3.1809e-05
2.57484e-05
2.11322e-05
1.77136e-05
1.56097e-05
1.46744e-05
3.35086e-05
2.3442e-05
0.00240281
0.00442096
0.000840682
0.000648768
0.000695317
0.000801918
0.000953285
0.0011176
0.00124309
0.00129654
0.00127182
0.00117647
0.00102781
0.000854565
0.00071002
0.000644221
0.000819796
0.000392957
0.000309178
0.000247943
0.000199831
0.000161719
0.000138504
0.000257645
0.000175691
0.000123861
9.03329e-05
6.79947e-05
5.26641e-05
4.18682e-05
3.41599e-05
2.86957e-05
2.16245e-05
1.79698e-05
6.10278e-05
3.61276e-05
0.0038179
0.00900694
0.00131559
0.000676681
0.000709339
0.000870987
0.00111889
0.00134985
0.00149352
0.00153505
0.00148874
0.00136606
0.00118298
0.000987863
0.000819422
0.0007139
0.000705127
0.00132481
0.000768993
0.000477742
0.000328287
0.000241304
0.000186085
0.000159824
0.000367284
0.000274868
0.000218
0.000179324
0.000149908
0.000126769
0.000106889
8.85727e-05
7.03995e-05
4.1099e-05
2.68403e-05
0.000100053
4.84754e-05
0.00573618
0.0158838
0.00257912
0.000857987
0.000805343
0.00105909
0.00149381
0.00176049
0.00187136
0.00186514
0.00177134
0.0016003
0.00136907
0.00111323
0.000874071
0.000684184
0.000560759
0.000516319
0.000431303
0.000349218
0.00028058
0.000225023
0.000181133
0.000150219
0.000142743
0.000130691
0.000118949
0.000107516
9.60382e-05
8.48627e-05
7.40821e-05
6.39554e-05
5.45975e-05
4.25394e-05
3.21413e-05
7.29555e-05
5.29292e-05
8.71058e-05
0.000150212
0.00021046
0.00837538
0.0234749
0.00577392
0.00176591
0.00142771
0.00196015
0.0023477
0.00246763
0.00244283
0.00234207
0.00217341
0.00192811
0.00161464
0.00127027
0.000946997
0.000689711
0.000518281
0.000423778
0.000362766
0.000308817
0.000256657
0.000209821
0.000171342
0.000143483
0.000128076
0.00011986
0.000113985
0.00010765
9.95666e-05
8.89676e-05
7.69927e-05
6.50669e-05
5.42595e-05
4.46327e-05
3.86526e-05
5.41292e-05
5.46916e-05
6.67561e-05
0.000279935
0.000241173
0.011302
0.0279695
0.0117204
0.00561196
0.00447926
0.0042927
0.00395872
0.00360702
0.00329944
0.00302481
0.00272862
0.002363
0.00192494
0.00145912
0.00103261
0.000706927
0.00050028
0.000388755
0.000324651
0.000273558
0.000226142
0.000185377
0.000154412
0.000134608
0.000125576
0.000123542
0.000123906
0.000124113
0.000122676
0.000117939
0.000106795
9.38877e-05
8.11704e-05
7.00842e-05
6.58493e-05
7.53189e-05
9.60363e-05
0.000159417
0.00037717
0.00035596
0.0118669
0.0290734
0.0169658
0.0122076
0.00950908
0.00740769
0.00594553
0.00499723
0.0043855
0.00392729
0.00346341
0.00290793
0.00227115
0.00162611
0.00106121
0.00066781
0.000441944
0.000328146
0.000266334
0.000220405
0.000182434
0.000153973
0.000135842
0.00012739
0.000126933
0.000131906
0.000140108
0.000150706
0.000163592
0.000178477
0.000193415
0.000200939
0.00021045
0.000230182
0.000273069
0.000416785
0.000799213
0.00162154
0.00490209
0.00135454
0.0109019
0.0178207
0.0143005
0.0110208
0.00870883
0.00729735
0.00648075
0.0060001
0.00562079
0.00513228
0.00440263
0.00346151
0.00246665
0.00156631
0.000837222
0.000482357
0.00032065
0.000241434
0.000195095
0.000162123
0.000138361
0.000123506
0.000116763
0.000116814
0.000122242
0.000131942
0.000145575
0.000163769
0.000187979
0.000220462
0.0002643
0.000324803
0.000410983
0.000544134
0.000741492
0.00101112
0.00131965
0.00158328
0.00177286
0.00107177
0.00346212
0.00626025
0.00828527
0.00888114
0.00892489
0.00845501
0.00739716
0.00586952
0.00407235
0.00249769
0.00147316
0.000838918
0.00047688
0.000298904
0.000211817
0.000165247
0.000136606
0.000117477
0.00010507
9.83026e-05
9.64371e-05
9.86305e-05
0.000104205
0.000112886
0.000124923
0.000141158
0.000163132
0.000193371
0.000235965
0.00029616
0.000380903
0.000498935
0.000653315
0.000826803
0.000967823
0.00100756
0.000900568
0.000562149
0.00362381
0.00877993
0.00863896
0.00710788
0.00604381
0.00496404
0.00383275
0.00274647
0.00179533
0.00108644
0.000643632
0.000389864
0.000252877
0.000181474
0.000142596
0.000119332
0.000104248
9.44818e-05
8.87887e-05
8.64093e-05
8.67741e-05
8.97486e-05
9.53882e-05
0.000103991
0.000116169
0.000132909
0.000155697
0.00018664
0.000228652
0.000286059
0.000364724
0.000470658
0.000604686
0.000756749
0.000871817
0.000980588
0.000773455
0.000583177
0.00263607
0.00315526
0.00356753
0.00451071
0.00396366
0.00352496
0.00315104
0.00265426
0.00207997
0.00151555
0.00102789
0.000665286
0.000431952
0.000293431
0.0002121
0.000162723
0.00013156
0.000111686
9.96269e-05
9.33924e-05
9.15779e-05
9.31829e-05
9.76311e-05
0.000104369
0.000113292
0.000124609
0.000138734
0.000156345
0.000178543
0.000206434
0.000241267
0.000284911
0.000339897
0.000409598
0.000497829
0.000628363
0.00067599
0.00062989
0.00051181
0.000403717
)
;

boundaryField
{
    floor
    {
        Cmu             0.09;
        kappa           0.41;
        E               9.8;
        type            epsilonWallFunction;
        value           nonuniform List<scalar> 
29
(
0.000627457
5.22507e-05
9.05576e-05
0.000132416
0.000136589
0.000125233
0.000109548
9.02265e-05
7.31651e-05
5.96889e-05
4.92509e-05
4.11239e-05
3.47249e-05
2.96207e-05
2.55071e-05
2.20825e-05
1.9095e-05
1.63053e-05
1.44206e-05
1.08892e-05
1.08892e-05
2.3442e-05
3.61276e-05
4.84754e-05
0.000627457
5.22507e-05
5.88986e-05
0.000392957
0.00132481
)
;
    }
    ceiling
    {
        Cmu             0.09;
        kappa           0.41;
        E               9.8;
        type            epsilonWallFunction;
        value           nonuniform List<scalar> 
43
(
0.00263607
0.00315526
0.00356753
0.00451071
0.00396366
0.00352496
0.00315104
0.00265426
0.00207997
0.00151555
0.00102789
0.000665286
0.000431952
0.000293431
0.0002121
0.000162723
0.00013156
0.000111686
9.96269e-05
9.33924e-05
9.15779e-05
9.31829e-05
9.76311e-05
0.000104369
0.000113292
0.000124609
0.000138734
0.000156345
0.000178543
0.000206434
0.000241267
0.000284911
0.000339897
0.000409598
0.000497829
0.000628363
0.00067599
0.00062989
0.00051181
0.000403717
0.0109019
0.0178207
0.00362381
)
;
    }
    sWall
    {
        Cmu             0.09;
        kappa           0.41;
        E               9.8;
        type            epsilonWallFunction;
        value           uniform 0.00263607;
    }
    nWall
    {
        Cmu             0.09;
        kappa           0.41;
        E               9.8;
        type            epsilonWallFunction;
        value           nonuniform List<scalar> 6(0.00021046 0.000241173 0.00035596 0.000562149 0.000583177 0.000403717);
    }
    sideWalls
    {
        type            empty;
    }
    glass1
    {
        Cmu             0.09;
        kappa           0.41;
        E               9.8;
        type            epsilonWallFunction;
        value           nonuniform List<scalar> 9(0.000548129 0.00134629 0.00240281 0.0038179 0.00573618 0.00837538 0.011302 0.0118669 0.0109019);
    }
    glass2
    {
        Cmu             0.09;
        kappa           0.41;
        E               9.8;
        type            epsilonWallFunction;
        value           nonuniform List<scalar> 2(0.00135454 0.00107177);
    }
    sun
    {
        Cmu             0.09;
        kappa           0.41;
        E               9.8;
        type            epsilonWallFunction;
        value           nonuniform List<scalar> 
14
(
0.000548129
0.000724837
0.000775598
0.000898675
0.00102561
0.00115782
0.00130297
0.00143753
0.00152722
0.00154879
0.00148795
0.00134338
0.00112716
0.000869565
)
;
    }
    heatsource1
    {
        Cmu             0.09;
        kappa           0.41;
        E               9.8;
        type            epsilonWallFunction;
        value           nonuniform List<scalar> 3(8.71058e-05 0.000150212 0.00021046);
    }
    heatsource2
    {
        Cmu             0.09;
        kappa           0.41;
        E               9.8;
        type            epsilonWallFunction;
        value           nonuniform List<scalar> 4(0.000693244 0.000187343 0.000187343 0.000819796);
    }
    Table_master
    {
        Cmu             0.09;
        kappa           0.41;
        E               9.8;
        type            epsilonWallFunction;
        value           nonuniform List<scalar> 9(0.000257645 0.000175691 0.000123861 9.03329e-05 6.79947e-05 5.26641e-05 4.18682e-05 3.41599e-05 2.86957e-05);
    }
    Table_slave
    {
        Cmu             0.09;
        kappa           0.41;
        E               9.8;
        type            epsilonWallFunction;
        value           nonuniform List<scalar> 9(0.000367284 0.000274868 0.000218 0.000179324 0.000149908 0.000126769 0.000106889 8.85727e-05 7.03995e-05);
    }
    inlet
    {
        type            turbulentMixingLengthDissipationRateInlet;
        mixingLength    0.01;
        phi             phi;
        k               k;
        value           uniform 0.000101881;
    }
    outlet
    {
        type            zeroGradient;
    }
}


// ************************************************************************* //
