/*--------------------------------*- C++ -*----------------------------------*=========                 |
  \      /  F ield         | OpenFOAM: The Open Source CFD Toolbox
   \    /   O peration     | Website:  https://openfoam.org
    \  /    A nd           | Version:  6
     \/     M anipulation  |
\*---------------------------------------------------------------------------*/
FoamFile
{
    version     2.0;
    format      ascii;
    class       volScalarField;
    location    "500";
    object      PMV;
}
// * * * * * * * * * * * * * * * * * * * * * * * * * * * * * * * * * * * * * //

dimensions      [0 0 0 0 0 0 0];

internalField   nonuniform List<scalar> 
459
(
1.6697177276933095
1.452974346979085
1.4253123880637628
1.401031423778118
1.385590297601076
1.3765692465834467
1.3742540568011001
1.3789201780040865
1.3905119904493384
1.4101053500640883
1.439184818725669
1.479804578699688
1.5335056596732999
1.5529736779885903
1.561095586065793
1.6408679409580817
1.626063853737348
1.6188999117696892
1.6212879405931588
1.6251086865897533
1.6284517375700258
1.625224236463358
1.6209788780050707
1.621080432872182
1.6229254295454068
1.6254254168242395
1.628406174349768
1.6319832807699
1.6365130303439015
1.642503924660787
1.653048796916629
1.6709476675938713
1.6761988297574637
1.6895642405511628
1.6321182957355824
1.4745399917332387
1.4640112785936998
1.4421118932703036
1.4289563416511266
1.4214618737322013
1.4195962343777506
1.4212851530658859
1.4259038229375007
1.4350874924359922
1.4518727125034177
1.4797500315370435
1.5199098676061482
1.539593054902368
1.5438941088627973
1.5477171575109916
1.557274318358013
1.6150087240400224
1.6117355392048007
1.6069590548260746
1.6066966229707593
1.6015020929407828
1.5981055513355094
1.597587720469823
1.5997568904599733
1.602666956952274
1.6047992748573903
1.6072328349497425
1.6092984138797037
1.6115223121927638
1.614449885455404
1.6183375431564315
1.6276790469448146
1.6474644541728978
1.6604445717204503
1.6583089252296617
1.6732613770759321
1.4788249907635551
1.5004729129162753
1.490920720421803
1.4876142550799627
1.4867294212402165
1.4877175067514736
1.4856142639699645
1.477724652044926
1.4685684799458756
1.4657084146028494
1.473929311293013
1.4969000684727098
1.5319464157980585
1.536725613120575
1.5419825454942466
1.5477171575109916
1.509586981083176
1.54078040776134
1.5496756731804098
1.5588587718996587
1.5701396840924522
1.5785463566288669
1.58400763225046
1.5951570565569089
1.603760603141728
1.6088830106775207
1.6123077491919082
1.615547496224665
1.6177044712842212
1.6188774631005793
1.6160905627121591
1.6194264785429604
1.6369381952739084
1.6340648906576454
1.5983301848296214
1.7481649118936793
1.4856811870528315
1.5296851956668134
1.541386212194225
1.5596952032683358
1.5755060164882633
1.585489534738519
1.5715296396059502
1.5355197964698986
1.4948169718964257
1.4643509592358865
1.4526791378699195
1.462172895412268
1.4887171679846753
1.5211028551470471
1.5356057683623883
1.5095583540175144
1.4718947031004082
1.4770421019860285
1.5055257897469347
1.5331190679808557
1.5581531363656136
1.580190513441087
1.5982303975823222
1.606535681115272
1.607518949275746
1.608679348335993
1.611836050860153
1.6153180074573106
1.6211772083904015
1.629475372353095
1.6426524408389205
1.6658429456905406
1.6629486552691495
1.649904007573283
1.6144593503954814
1.5572429293335388
1.837441551751376
1.506909957883641
1.5585461683992776
1.5903984649300709
1.6427400947352735
1.7010017461273075
1.711517907867012
1.6391541562620533
1.557645287337372
1.4897623268751132
1.443508601854934
1.4229665098819853
1.4275123028523506
1.4513916933149908
1.4837364177905301
1.507474790558321
1.5091487805965613
1.506734242187477
1.5183057362469357
1.544188590762302
1.5758938159350329
1.6062023896987019
1.6328021353217825
1.6538026327143462
1.6677007657613327
1.6732505059888483
1.676719102113719
1.6789007191677652
1.6802859228067206
1.6809528712480681
1.6820227592519124
1.6842148966362551
1.6869187675529973
1.6745260318372635
1.6498413259620788
1.5970150380662378
1.5935627146692721
1.7239243483397835
1.7128470520230767
1.5570603113523283
1.927474883437372
1.55068247512927
1.6118785855909827
1.6462742251519786
1.7186756632575733
1.747778342077292
1.6954861851390206
1.6099800550495535
1.5260419515791015
1.4542159006749078
1.4060268185950515
1.3873902500883122
1.398060757649427
1.4299845289576216
1.4728978808061608
1.513972850722215
1.541740893916153
1.5618304168604418
1.5868560331911672
1.618514276625475
1.652327849935685
1.669992883025152
1.6852684028395954
1.6972008412380084
1.706745780981105
1.7139038845998773
1.7196299908681232
1.7239243483397835
1.7253557581773624
1.7248786239427276
1.7220157686625888
1.717721326249493
1.7113908631341006
1.6869836102254137
1.6537131823286624
1.596587745387308
1.5944294976620648
1.6147749393840216
1.615994622267268
1.628820678076518
2.017826568991929
1.6460141602408864
1.7628058366245807
1.7432562274779326
1.7363032704036692
1.6943557151588837
1.6246446173763016
1.5375876815688525
1.4516035160269478
1.3842255639329144
1.3485846180598353
1.3481247232868294
1.3790379701453854
1.432087167614523
1.497007417651449
1.5619279221851654
1.6012270274700424
1.6270190131130833
1.650417946459394
1.6719024436302619
1.6909961466507033
1.706745780981105
1.7191528282386226
1.72869563102768
1.7358521049480287
1.7410998386132785
1.744916185671445
1.7468242998733616
1.746347275043655
1.7439621137107024
1.7387145417911387
1.7320353864354578
1.724401487329469
1.7139038845998773
1.6750273121096373
1.6201659318420367
1.5999030092945057
1.5922840527817579
1.5692183053017354
1.6500523632618984
2.1502785148594317
1.9631452987184272
1.9179238967758245
1.8214485635701596
1.7474752244887148
1.6437230106158764
1.5203337626479807
1.4043545448529822
1.3178014640410798
1.2744368247954807
1.2773260866580414
1.3200222898217489
1.3913759672167454
1.4807493852234948
1.5706518119393542
1.613168447852058
1.6475530299472154
1.674766720378031
1.6967235704793482
1.714858259019145
1.7296498588765352
1.7410998386132785
1.7496863965974467
1.7558872969278385
1.7606569296794732
1.763041650469632
1.7644724521843536
1.7639955208483007
1.7625647114317988
1.7592260665512132
1.753979372878521
1.7468242998733616
1.7391916060546457
1.7296498588765352
1.7191528282386226
1.709131873235249
1.6878698497535582
1.6761336663783135
1.6199109823428226
1.5452667689847737
2.3470213140883898
2.2165215815054804
2.0531854802537177
1.862173021927397
1.5951709204604758
1.3528446092554751
1.1814122948559507
1.0932640953055512
1.0840142512250945
1.1384029791481802
1.2383911390468847
1.363710244280152
1.5022181809868698
1.5696962201503717
1.6337049098100513
1.6761988297574637
1.7038823946025958
1.7239243483397835
1.7391916060546457
1.7515944111422257
1.7595421088141563
1.76083101638034
1.7612811428321347
1.7607688299903312
1.7594380964169398
1.7567742129077262
1.7532312635913656
1.7475363456303596
1.7407670411156788
1.7319006645543926
1.7210295866315803
1.7100382743445766
1.698563657002266
1.6850245980741752
1.6704831092135515
1.6579386796918278
1.6495000892408909
1.6454937974168498
1.6346402808269942
1.6056409834508216
3.0
-2.0472801422931153
-1.2330478284173656
-0.4087994037134742
0.19665400268727318
0.6562343709056953
1.0240396377999927
1.2636268102601322
1.4339404178219195
1.5481950312369583
1.61985512905389
1.6543687069595292
1.6782458916383212
1.6975061523065391
1.7114651815403306
1.7221101515164972
1.7297893846702705
1.7342147324141055
1.7362794694716372
1.7365753764387228
1.7358523422378829
1.7336711564089415
1.730382083727294
1.726810245076067
1.7224077738139496
1.7177349208145833
1.7129798661861189
1.7083967832741382
1.7049124206962314
1.7026486862796948
1.7008260931774668
1.7003132120979396
1.7002024285514656
1.702973457882231
1.7142681200806384
1.7483866363663632
1.8142371798428594
1.6700957906487857
-2.5312269610005593
-1.0357730593290675
0.05004804073193426
0.6129838345055006
0.9311841483164848
1.1413600115701874
1.2976880362046408
1.4177738670986733
1.5100664179725074
1.575583665568055
1.6210383170067946
1.6530009102937988
1.6764310317286424
1.693041475315567
1.704809036684706
1.7130889105427374
1.718842414014504
1.7226605116472544
1.7246964143664028
1.7256163339616868
1.7258429742236048
1.7252914656099243
1.7244374643317886
1.723326292884357
1.7215557029600577
1.7202695635015095
1.7187380177604057
1.718359683732212
1.7191399748297185
1.7228676130218346
1.7298664383832838
1.7407760185596328
1.7532882518340034
1.7642614621799448
1.7760330973444138
1.8139135307457896
1.7506315256156795
1.7061920094847196
-0.7952402745777145
-0.9351596302933716
-0.817195221540157
0.44987559151201434
0.9560765725764889
1.1654524097032046
1.2955186022234604
1.3959791318791257
1.4763044539516155
1.5409847360320603
1.5925045372118805
1.6315737967127883
1.659591304723177
1.6798537093110288
1.6938313595258412
1.7031710124168191
1.7087465682891287
1.7124833941767656
1.7147613878704482
1.7164062912350893
1.7171347846188225
1.7180358427261344
1.7186158211422178
1.718712535094564
1.7192912296327705
1.7194236422860742
1.720252853116381
1.7210256166223576
1.7230979182594377
1.7259152918187837
1.7314403784909804
1.7417741398797844
1.7603029070212852
1.7941219761576837
1.8240678136118806
1.8297866751060012
1.7980273834218157
1.7610653947629793
1.7201095237512367
1.721841706338745
)
;

boundaryField
{
    ".*"
    {
        type            zeroGradient;
    }
}


// ************************************************************************* //
