/*--------------------------------*- C++ -*----------------------------------*\
  =========                 |
  \\      /  F ield         | OpenFOAM: The Open Source CFD Toolbox
   \\    /   O peration     | Website:  https://openfoam.org
    \\  /    A nd           | Version:  6
     \\/     M anipulation  |
\*---------------------------------------------------------------------------*/
FoamFile
{
    version     2.0;
    format      ascii;
    class       volScalarField;
    location    "1400";
    object      alphat;
}
// * * * * * * * * * * * * * * * * * * * * * * * * * * * * * * * * * * * * * //

dimensions      [1 -1 -1 0 0 0 0];

internalField   nonuniform List<scalar> 
459
(
0.00130585
0.00142948
0.00145455
0.00152549
0.00159175
0.00165409
0.00171549
0.00177458
0.00181595
0.00183317
0.00182035
0.00177371
0.00169286
0.00158468
0.00146638
0.000588171
0.000715881
0.000798787
0.000788668
0.000759028
0.000722049
0.000677568
0.000633984
0.000594443
0.000559254
0.000528008
0.000500169
0.000475457
0.000453177
0.000432581
0.000412684
0.000392093
0.000380459
0.000349843
0.00178476
0.00444585
0.00428619
0.00500372
0.00570513
0.00640217
0.0070113
0.00747587
0.00788981
0.00822142
0.00842574
0.0084506
0.0082149
0.00751584
0.00561589
0.00149669
0.000872984
0.000637733
0.0013009
0.00178543
0.00213067
0.00230688
0.00229411
0.00186283
0.00161517
0.00143657
0.00129853
0.00118805
0.00109755
0.00101703
0.000942193
0.000870249
0.000807019
0.000749669
0.000898068
0.000470515
0.0021805
0.00608606
0.00534287
0.00674464
0.00745457
0.0079835
0.00839475
0.00872342
0.00906854
0.00941853
0.0097314
0.00994903
0.0100044
0.00980087
0.00907652
0.00692665
0.00149112
0.00126566
0.00180251
0.00228258
0.00270538
0.00298486
0.00289143
0.000962167
0.000850837
0.000761527
0.000689532
0.000630916
0.000582668
0.000542652
0.000509464
0.000482544
0.000520749
0.000599986
0.0010152
0.00055186
0.00255775
0.00777403
0.00539662
0.00716745
0.00782518
0.0080726
0.00823712
0.00841895
0.00870199
0.00906691
0.00946627
0.00982806
0.0100801
0.0101479
0.00993953
0.00914347
0.00660927
0.00178129
0.00223698
0.0028875
0.00348526
0.00393358
0.00418761
0.0038938
0.00107944
0.000984886
0.000918259
0.000867735
0.000824323
0.00078375
0.000744701
0.000703587
0.000655629
0.000615296
0.000631415
0.00119144
0.000611391
0.00294002
0.00991471
0.00599352
0.00693608
0.0077847
0.00790133
0.0078618
0.00797404
0.00822951
0.00860882
0.00906488
0.00949976
0.00981342
0.00992761
0.00981889
0.00944218
0.00859195
0.00703538
0.0064786
0.00625624
0.00613568
0.00603865
0.00592245
0.005659
0.00476413
0.00434771
0.00410764
0.00391908
0.00371741
0.00342636
0.00303044
0.0025541
0.00203069
0.00150775
0.00111274
0.0011627
0.000799063
0.000748347
0.000892977
0.000999387
0.00334265
0.0122235
0.00824182
0.00703344
0.00762133
0.00792172
0.00777303
0.00785954
0.00805821
0.00840559
0.008879
0.00936626
0.00971957
0.00982655
0.00966579
0.0093072
0.00885599
0.00838166
0.00806569
0.00779247
0.00749965
0.00720065
0.0069032
0.00657806
0.00615583
0.00580037
0.00549709
0.0052138
0.00493097
0.00462686
0.00422927
0.00371961
0.00310005
0.00241268
0.00180442
0.00133214
0.00105801
0.000940323
0.00136615
0.00104783
0.00370031
0.0137916
0.011383
0.00907741
0.00866068
0.00847343
0.00817334
0.00802157
0.00811467
0.00846816
0.00900254
0.00955232
0.00992552
0.00998857
0.00973115
0.00928913
0.00889165
0.00867235
0.00853023
0.00828033
0.0078962
0.00744056
0.00696091
0.00648745
0.00604585
0.00567508
0.00535648
0.00507015
0.00481089
0.00458327
0.0043838
0.00404781
0.00355059
0.00294312
0.00236829
0.00184416
0.00151112
0.00145093
0.00153153
0.00120506
0.00375975
0.0120681
0.0108752
0.0101588
0.00942502
0.00864334
0.00810073
0.00795353
0.00821265
0.00878603
0.0094962
0.0101137
0.0104282
0.0103364
0.00988978
0.00931358
0.00890882
0.0087396
0.008497
0.00801201
0.00737785
0.00670244
0.00607093
0.00554114
0.00512895
0.00481272
0.00455924
0.00435313
0.00419501
0.00409343
0.00405751
0.00404333
0.00373937
0.00332919
0.00298018
0.00283728
0.00305197
0.00373665
0.00471996
0.00186081
0.00364886
0.00430915
0.00476823
0.00487186
0.00509003
0.00557848
0.0063738
0.00743592
0.00863598
0.00978546
0.0106809
0.011142
0.0110732
0.010547
0.00978759
0.00918886
0.00871085
0.00823256
0.00759413
0.00680441
0.00598995
0.00527192
0.00470989
0.00429946
0.00400106
0.00377187
0.00358284
0.00341922
0.00327268
0.00313631
0.00300412
0.0028788
0.00277854
0.00271399
0.00270908
0.00274899
0.00274962
0.00263548
0.00244938
0.00171159
0.00177434
0.0043495
0.00768797
0.00990414
0.0113982
0.0123468
0.0127882
0.0127943
0.0124527
0.0118379
0.0109705
0.00993981
0.00900489
0.00827347
0.00755429
0.00674539
0.00589324
0.00508866
0.00441702
0.00392223
0.00357569
0.0033301
0.00314724
0.00300334
0.00288607
0.00279049
0.00271607
0.00266576
0.00264617
0.00265704
0.00268389
0.00272345
0.00276318
0.0027667
0.00267864
0.00247939
0.0021826
0.00138078
0.00261756
0.00777005
0.0108267
0.0116258
0.0119233
0.0118296
0.0113568
0.0106286
0.00977008
0.00888903
0.00805059
0.00728022
0.00659073
0.00590821
0.00519781
0.00453001
0.00396224
0.00351007
0.00315863
0.00290399
0.00272151
0.00259109
0.00250151
0.00244742
0.0024256
0.00243226
0.00246125
0.00250346
0.00257292
0.00266324
0.00276966
0.00288335
0.00298533
0.00305903
0.00304819
0.00305348
0.00275386
0.00139786
0.00231483
0.0024553
0.00255621
0.00273546
0.00262858
0.00252687
0.00244907
0.00233748
0.00218523
0.00200091
0.00179317
0.00157697
0.00137458
0.00120567
0.00107567
0.000979717
0.000910433
0.000861616
0.000828936
0.000809737
0.00080232
0.000802509
0.000809035
0.00082111
0.000838325
0.000860525
0.00088777
0.000920395
0.000959191
0.00100567
0.00105871
0.0011189
0.00118665
0.00126249
0.00134638
0.00145819
0.00148996
0.00145339
0.00135608
0.00125111
)
;

boundaryField
{
    floor
    {
        type            compressible::alphatWallFunction;
        Prt             0.85;
        value           nonuniform List<scalar> 
29
(
0.000206419
8.25693e-05
0.000101496
0.000113561
0.000112097
0.000107795
0.0001024
9.58649e-05
8.94111e-05
8.35091e-05
7.8216e-05
7.34814e-05
6.92336e-05
6.5438e-05
6.19945e-05
5.87923e-05
5.56803e-05
5.24394e-05
5.05987e-05
4.57198e-05
4.57192e-05
6.46762e-05
7.7099e-05
8.60452e-05
0.000206417
8.25683e-05
8.99682e-05
0.000179143
0.000248402
)
;
    }
    ceiling
    {
        type            compressible::alphatWallFunction;
        Prt             0.85;
        value           nonuniform List<scalar> 
43
(
0.000317612
0.000335563
0.000348395
0.000371212
0.000357778
0.000344909
0.000335024
0.000320774
0.000301208
0.000277319
0.000250102
0.000221404
0.000194137
0.000171035
0.000153002
0.000139531
0.000129708
0.000122735
0.000118041
0.000115272
0.000114201
0.000114228
0.000115171
0.000116913
0.000119392
0.000122579
0.000126477
0.000131127
0.000136631
0.000143191
0.000150633
0.000159028
0.000168415
0.000178849
0.00019031
0.000205461
0.000209742
0.000204814
0.000191632
0.000177293
0.000484775
0.000564814
0.000355937
)
;
    }
    sWall
    {
        type            compressible::alphatWallFunction;
        Prt             0.85;
        value           uniform 0.000316337;
    }
    nWall
    {
        type            compressible::alphatWallFunction;
        Prt             0.85;
        value           nonuniform List<scalar> 6(0.000141957 0.000148755 0.000170587 0.000194639 0.000196953 0.000176945);
    }
    sideWalls
    {
        type            empty;
    }
    glass1
    {
        type            compressible::alphatWallFunction;
        Prt             0.85;
        value           nonuniform List<scalar> 9(0.00017996 0.000243289 0.000294347 0.000342194 0.000389989 0.000439684 0.000483362 0.000490725 0.000477506);
    }
    glass2
    {
        type            compressible::alphatWallFunction;
        Prt             0.85;
        value           nonuniform List<scalar> 2(0.000256897 0.000237391);
    }
    sun
    {
        type            compressible::alphatWallFunction;
        Prt             0.85;
        value           nonuniform List<scalar> 
14
(
0.000184662
0.000201443
0.000204828
0.000214374
0.000223246
0.000231556
0.000239706
0.000247519
0.000252971
0.000255237
0.00025355
0.000247402
0.000236702
0.000222297
)
;
    }
    heatsource1
    {
        type            compressible::alphatWallFunction;
        Prt             0.85;
        value           nonuniform List<scalar> 3(0.000106393 0.000127248 0.000142334);
    }
    heatsource2
    {
        type            compressible::alphatWallFunction;
        Prt             0.85;
        value           nonuniform List<scalar> 4(0.000210676 0.00012439 0.000124389 0.000209924);
    }
    Table_master
    {
        type            compressible::alphatWallFunction;
        Prt             0.85;
        value           nonuniform List<scalar> 9(0.000137076 0.000121213 0.00010831 9.77754e-05 8.91e-05 8.1885e-05 7.58449e-05 7.07933e-05 6.66653e-05);
    }
    Table_slave
    {
        type            compressible::alphatWallFunction;
        Prt             0.85;
        value           nonuniform List<scalar> 9(0.000153558 0.000140289 0.00013085 0.000123639 0.000117403 0.000111539 0.000105861 9.98442e-05 9.27713e-05);
    }
    inlet
    {
        type            fixedValue;
        value           uniform 1.94e-05;
    }
    outlet
    {
        type            zeroGradient;
    }
}


// ************************************************************************* //
