/*--------------------------------*- C++ -*----------------------------------*=========                 |
  \      /  F ield         | OpenFOAM: The Open Source CFD Toolbox
   \    /   O peration     | Website:  https://openfoam.org
    \  /    A nd           | Version:  6
     \/     M anipulation  |
\*---------------------------------------------------------------------------*/
FoamFile
{
    version     2.0;
    format      ascii;
    class       volScalarField;
    location    "1400";
    object      PMV;
}
// * * * * * * * * * * * * * * * * * * * * * * * * * * * * * * * * * * * * * //

dimensions      [0 0 0 0 0 0 0];

internalField   nonuniform List<scalar> 
459
(
1.6743222303083594
1.4603624857770428
1.4355826133167737
1.4128170428336742
1.3971392302760943
1.3876047824022388
1.3842218403465154
1.3864103546408502
1.3943885915190488
1.408756719225139
1.430469083763754
1.4616561589296433
1.5034914054764685
1.551764874901458
1.557642877922655
1.6139917055187696
1.6015777178118134
1.5977577757205044
1.598712772308463
1.6006227433692328
1.6025326848422925
1.599765958243283
1.5959759216852578
1.5954426380475621
1.595676429428756
1.5968766179787468
1.5984972726265592
1.6001778351656424
1.6027549243475405
1.6072419059481633
1.6163367801378787
1.6216304453860833
1.6240174504449592
1.6345196921621863
1.6391228518884273
1.481609289729154
1.4742423175190063
1.4540044855447973
1.4415755930591914
1.4340483462967293
1.431546942514167
1.43300684830702
1.436589263256286
1.443580402771126
1.4555618243959825
1.475567692951869
1.504125657298843
1.5395182895460997
1.5480895903915457
1.5466565400511523
1.5428350003148805
1.5723330697461626
1.5944152298679315
1.590595068019064
1.5905043760301796
1.5839255261523413
1.579334752161861
1.5773474749944736
1.5776385265485986
1.5778771583107922
1.5782429396744482
1.5779913774927588
1.57781146305495
1.5777807687210228
1.578409733244826
1.5804754685830673
1.5872399213689556
1.6030101655732338
1.6073074082812262
1.5965013554816405
1.6828777658326572
1.4844917771607957
1.5093368834807215
1.4995568428543669
1.4972375321421858
1.4967664473598674
1.4980280089374063
1.499256603068739
1.4969419984971657
1.4903918053843976
1.4863038253792105
1.488649827249193
1.5017769832268413
1.5259345046998523
1.5461788533160605
1.5476119085906426
1.5480895903915457
1.4887012362838175
1.5326493436894886
1.5470644433521719
1.5554535485993348
1.5634556723328266
1.5690465592730458
1.5719296703241294
1.5779281770669977
1.5820967950707843
1.5836327342284877
1.5834659359500736
1.5832633798551408
1.582509373488422
1.5804188645982014
1.574978382402902
1.575885207909857
1.5928586691788433
1.583493807349039
1.5356684347435223
1.7596726442030939
1.490159025880694
1.5365466629558504
1.545625259097282
1.5622195997135067
1.5777592744512667
1.5900810391088
1.5908316435990657
1.571264219179506
1.5389563914801763
1.5072781189550126
1.4870353341944877
1.4832683098236161
1.497676912872949
1.5252356008502148
1.5485672705441547
1.5434776826694798
1.5035483017868914
1.4957765095618543
1.5227610469532584
1.5473953254525876
1.5661734235183853
1.5813270411809597
1.591366926318013
1.5933889771721481
1.590660185179448
1.5883429878033184
1.587412736432697
1.587664269210817
1.589459055185026
1.5943392190208987
1.6052270596468192
1.6268582131282303
1.620659890135781
1.6063232926298
1.5631223717393046
1.4912759881089797
1.849539413237614
1.5110819810093863
1.5631257282239863
1.589729000021652
1.6338156206464172
1.6838160122078194
1.7165932703746576
1.6889794930097592
1.6245943409437786
1.5571519722717249
1.5029888941803264
1.4693767790476362
1.4580207240023748
1.4674629052076604
1.491430887069713
1.5190925223054295
1.5308752611486385
1.5294257575853307
1.535771071776652
1.5589469209468843
1.587152765181396
1.6113941291687324
1.6309495301246506
1.640247783654693
1.646930190842221
1.6501764791030875
1.6483968254870003
1.6462413683982609
1.6435843085406012
1.6404860024366252
1.639042695157862
1.6399093483848248
1.6413706484954982
1.6287990184567256
1.6032597619174411
1.5445700492891357
1.5381754511578538
1.663634448138724
1.6484258386274018
1.4858556726094387
1.939448085210637
1.5537057930580345
1.6155108568137653
1.6409542746835677
1.7043951336541023
1.733286136753031
1.7526572603900683
1.6764573355080443
1.6026436172762077
1.5315752064553725
1.474349527061123
1.43938557856464
1.430222823010078
1.444186352185306
1.4752702412121195
1.5132975937482909
1.5463023577100272
1.5699484138271902
1.594066949403205
1.6197208065190405
1.6345196921621863
1.647407490414282
1.6574303068245746
1.664588899872464
1.670792629211671
1.675564482633848
1.6789046514675134
1.6808132715121784
1.6812904210635364
1.67985896585348
1.6765188274319116
1.6712698242266477
1.661614001033372
1.6371533772253988
1.6042248978610232
1.5430242555775864
1.5408029494620077
1.5549321277349086
1.5523760008021423
1.563595287940812
2.027845327216476
1.6487423361964455
1.765862254375745
1.7363080114791005
1.7317875742967912
1.7176569646499633
1.6751172944266972
1.6122093400709179
1.538394276112019
1.4686660326951855
1.4184107953064253
1.3956685801098974
1.4018615715049014
1.433368689407134
1.4822619842902052
1.5397475444841784
1.5882074079862238
1.610649603187485
1.631178173107146
1.6483620834333446
1.6626799879625953
1.673655767100856
1.682244713599527
1.6884474005595325
1.6927413489363452
1.6960809612263428
1.6979892615498038
1.698466330977526
1.6975121898586691
1.6946497123014113
1.6889245148442027
1.682244713599527
1.6741329492209178
1.6615348628663664
1.6224095690840057
1.5659668257695099
1.5441683357189597
1.5329540693608308
1.5067114989181702
1.5914328819637247
2.159718620054523
1.9656624856297413
1.92124728814378
1.8208562949733378
1.7686087100572392
1.7009228522242237
1.6103716177993546
1.5108884958373852
1.4221625924983046
1.3599513702555603
1.3338654825756315
1.3449122188522535
1.38699023632131
1.4524247434437858
1.531668202928516
1.5867747903466343
1.6182885571389847
1.6445436624370602
1.664588899872464
1.6793818097503503
1.690355844355545
1.698466330977526
1.704190986768456
1.7080072408469582
1.7103923246595347
1.7118233471182307
1.7123003499530243
1.7113463419562442
1.7094382980806306
1.70609913221296
1.701328699889754
1.693695535106681
1.6860617958759518
1.6769959965815355
1.6669749921625008
1.656953050540777
1.6363822865875663
1.6247926383101632
1.5637702690708462
1.4790446828526231
2.3559234463354035
2.2230908718943874
2.0552583888204
1.8800640663685106
1.7101544662873216
1.515464620867675
1.3472046614159925
1.2313442836272153
1.1787913863699562
1.185419996455899
1.239888877671807
1.3286446940383811
1.4379111127061381
1.5371024955177828
1.5858197029429841
1.631178173107146
1.66077104234936
1.6808132715121784
1.695126797527538
1.7056220992973101
1.7127773504583887
1.7156624407215932
1.7136590931629097
1.7110449016108475
1.7078135010101054
1.703943386522626
1.6986267399298265
1.691668260823979
1.683771461986681
1.6744355943658389
1.6632891079536394
1.6513817803618625
1.640278292024681
1.6264325151820676
1.6106228888538199
1.596621088458301
1.5873044125626028
1.5814218861238818
1.570783505557075
1.5400339810787949
-2.9634909287644047
-1.705776231778184
-1.0685145595685013
-0.37720439797782995
0.15115062929662598
0.5682319977741381
0.908688623698041
1.18919036025076
1.3545119633786278
1.4773756848084685
1.561941638433387
1.6154240065865144
1.65246801063797
1.6657773386563426
1.6765424885371296
1.6839322613781618
1.6881583448474524
1.689434493994881
1.6893041012714147
1.6879366813647325
1.6851365842498052
1.6816538982024691
1.6777938759489794
1.6724827018784396
1.6671824276927287
1.661092927086396
1.6554796542757153
1.6507384752676826
1.6467800410532156
1.6440940152456254
1.6423952926502314
1.6418225055459517
1.6409014755398765
1.642880636311837
1.653401964456343
1.6885100127384616
1.7596620463346668
1.600641820097464
-2.4369412882145522
-0.9751471575128339
0.03905130999929517
0.551038952390502
0.8798194665398443
1.0881713336550776
1.2416165712232552
1.360528309612188
1.4527063777934572
1.5219242835162987
1.5710362308149617
1.6044928179385365
1.6278633534963325
1.6445666027821013
1.6553946328269555
1.662342256601451
1.666415053608363
1.6688394421348234
1.6708034436891732
1.6709613074229857
1.6707296410807162
1.6701167974536502
1.6686509904527473
1.6668552942894923
1.664823870250758
1.6627238572924612
1.6613142979781554
1.6605967831057455
1.6611842194255142
1.6644993732887647
1.6719014073996017
1.683303471175539
1.6957568832052885
1.7058610643939895
1.71725603467186
1.755361799306789
1.6896961949191622
1.639595917590577
-0.8916022461682404
-1.0311851371179448
-0.9097068122763445
0.33015802461460664
0.8481058285974845
1.069214526294223
1.2061466219584778
1.3122587095834795
1.3974661139485087
1.467072886740186
1.5232046110932453
1.5674871505454357
1.5993159408531445
1.6209749983294472
1.6343223756109577
1.6411695522557037
1.6442893418502116
1.644736948208507
1.6438566671926076
1.6436789296490746
1.6434105655151494
1.6430578585049382
1.643090513811738
1.6434610342954865
1.6441443442522774
1.64516655809298
1.6466408974464866
1.6488136305667682
1.6520902070394603
1.6570574463248977
1.6642528097642972
1.6764572403475466
1.6980867999694322
1.7372510704780917
1.7661861208010279
1.7723833111146434
1.739087787852846
1.69625999970758
1.6540242828387326
1.6594325506660623
)
;

boundaryField
{
    ".*"
    {
        type            zeroGradient;
    }
}


// ************************************************************************* //
