// -*- C++ -*-
// File generated by PyFoam - sorry for the ugliness

FoamFile
{
 version 2.0;
 format ascii;
 class volVectorField;
 location "2700";
 object U;
}

dimensions [ 0 1 -1 0 0 0 0 ];

internalField nonuniform List<vector> 459
(
  (0.0336643 0.0881338 0)
  (-0.171464 0.02637 0)
  (-0.196467 0.0178336 0)
  (-0.227137 0.0119138 0)
  (-0.248797 0.00542955 0)
  (-0.260492 -0.0013574 0)
  (-0.260779 -0.00845728 0)
  (-0.248954 -0.0158351 0)
  (-0.225928 -0.0227716 0)
  (-0.193688 -0.0281751 0)
  (-0.155633 -0.0312081 0)
  (-0.115508 -0.0315824 0)
  (-0.0768575 -0.0296596 0)
  (-0.0447546 -0.0268888 0)
  (-0.0343062 -0.0250716 0)
  (-0.00240217 0.0085808 0)
  (-0.0275844 -0.0196895 0)
  (-0.00179668 -0.0295372 0)
  (0.0223711 -0.0219467 0)
  (0.0397179 -0.0147903 0)
  (0.0527868 -0.0094588 0)
  (0.0606076 -0.0056234 0)
  (0.0645061 -0.00361669 0)
  (0.0662291 -0.00275614 0)
  (0.0670892 -0.00234197 0)
  (0.0676136 -0.00207192 0)
  (0.0678749 -0.00185172 0)
  (0.0678075 -0.0015873 0)
  (0.0671975 -0.00110158 0)
  (0.0654585 2.56667e-06 0)
  (0.0613393 0.00227759 0)
  (0.0534907 0.00464307 0)
  (0.0464651 0.00653091 0)
  (-0.0146863 0.0228621 0)
  (0.21021 0.180104 0)
  (-0.158706 0.0694328 0)
  (-0.157118 0.052831 0)
  (-0.188498 0.0403456 0)
  (-0.209734 0.0263399 0)
  (-0.221503 0.0108748 0)
  (-0.22232 -0.00615453 0)
  (-0.211459 -0.0238899 0)
  (-0.1904 -0.0399191 0)
  (-0.161449 -0.0518182 0)
  (-0.128055 -0.0579948 0)
  (-0.0936602 -0.0581635 0)
  (-0.0614134 -0.0529282 0)
  (-0.0347729 -0.0438399 0)
  (-0.0180562 -0.0327542 0)
  (-0.0043657 -0.0147138 0)
  (-0.00451428 0.0171925 0)
  (0.0733368 0.0360686 0)
  (0.0319169 -0.0206758 0)
  (0.0394718 -0.0338543 0)
  (0.051495 -0.0291492 0)
  (0.0608929 -0.0202851 0)
  (0.0672648 -0.0120602 0)
  (0.0698808 -0.00497573 0)
  (0.0702782 -0.00104598 0)
  (0.0701669 0.000602338 0)
  (0.0702419 0.00134306 0)
  (0.0704168 0.00179372 0)
  (0.0705414 0.00217034 0)
  (0.0705662 0.00265054 0)
  (0.0704387 0.0035966 0)
  (0.0695938 0.00596593 0)
  (0.0654482 0.0125772 0)
  (0.0550324 0.0180293 0)
  (0.0505334 0.0215663 0)
  (-0.0559257 0.0492942 0)
  (0.371537 0.269012 0)
  (-0.173925 0.110055 0)
  (-0.117479 0.0850112 0)
  (-0.147341 0.0629364 0)
  (-0.165852 0.0399843 0)
  (-0.176255 0.0150025 0)
  (-0.176074 -0.0124555 0)
  (-0.164377 -0.040522 0)
  (-0.14381 -0.064937 0)
  (-0.117276 -0.0820542 0)
  (-0.0882929 -0.0899211 0)
  (-0.059552 -0.0888203 0)
  (-0.0331282 -0.0798523 0)
  (-0.0111102 -0.0648282 0)
  (0.00535083 -0.0443594 0)
  (0.0168058 -0.0188022 0)
  (0.0228993 0.0178423 0)
  (0.120508 -0.0381768 0)
  (0.0791047 -0.0450513 0)
  (0.073358 -0.042576 0)
  (0.0754522 -0.034894 0)
  (0.0770623 -0.0252997 0)
  (0.0781307 -0.0170308 0)
  (0.0765332 -0.01356 0)
  (0.0720307 -0.00949568 0)
  (0.0688944 -0.00728605 0)
  (0.0675246 -0.00601854 0)
  (0.0669735 -0.00520689 0)
  (0.0667305 -0.00463894 0)
  (0.0668156 -0.00410423 0)
  (0.0677213 -0.00322383 0)
  (0.0707165 7.70128e-05 0)
  (0.0683523 0.0181498 0)
  (0.0536452 0.0306268 0)
  (0.0572201 0.0386778 0)
  (-0.0927418 0.076341 0)
  (0.516402 0.340291 0)
  (-0.206992 0.14594 0)
  (-0.0763592 0.112025 0)
  (-0.103646 0.0816748 0)
  (-0.116374 0.0519538 0)
  (-0.122489 0.0188807 0)
  (-0.117663 -0.0188886 0)
  (-0.102841 -0.0572557 0)
  (-0.082403 -0.08875 0)
  (-0.0593694 -0.109334 0)
  (-0.0368188 -0.117443 0)
  (-0.0158891 -0.114626 0)
  (0.00298347 -0.102214 0)
  (0.0187491 -0.0829325 0)
  (0.0323796 -0.0590814 0)
  (0.0472642 -0.0319446 0)
  (0.0699632 -0.00213929 0)
  (0.102413 0.0123837 0)
  (0.108508 -0.0296673 0)
  (0.0928744 -0.0389958 0)
  (0.0835457 -0.0362384 0)
  (0.0790466 -0.0305115 0)
  (0.076042 -0.023072 0)
  (0.0745672 -0.014038 0)
  (0.0766921 -0.00835438 0)
  (0.0818305 -0.00645801 0)
  (0.0860952 -0.00535503 0)
  (0.0889421 -0.00447642 0)
  (0.0905822 -0.00339326 0)
  (0.0903603 -0.00183767 0)
  (0.0871912 0.000396124 0)
  (0.0798201 0.00360524 0)
  (0.0652384 0.00839247 0)
  (0.0528883 0.029777 0)
  (0.0401422 0.047158 0)
  (0.060766 0.0601402 0)
  (-0.135985 0.0994773 0)
  (0.640515 0.395386 0)
  (-0.24757 0.175171 0)
  (-0.0366964 0.126961 0)
  (-0.0579981 0.091728 0)
  (-0.0621413 0.0579469 0)
  (-0.0599841 0.0184595 0)
  (-0.0436795 -0.0292783 0)
  (-0.0245559 -0.0752475 0)
  (-0.00601444 -0.109639 0)
  (0.0106013 -0.129995 0)
  (0.0233016 -0.135456 0)
  (0.0333691 -0.129779 0)
  (0.0411443 -0.115336 0)
  (0.0475021 -0.0947633 0)
  (0.0536462 -0.0707387 0)
  (0.0614758 -0.046388 0)
  (0.0736947 -0.0276534 0)
  (0.0845038 -0.0260972 0)
  (0.0855702 -0.0345318 0)
  (0.0784771 -0.034654 0)
  (0.0698533 -0.0304808 0)
  (0.0632514 -0.0253741 0)
  (0.0586274 -0.0197059 0)
  (0.0562563 -0.0135072 0)
  (0.0566778 -0.00772575 0)
  (0.0594858 -0.00498568 0)
  (0.0625451 -0.00388164 0)
  (0.0654027 -0.00284077 0)
  (0.0678911 -0.000834534 0)
  (0.0695304 0.00262999 0)
  (0.0690624 0.00757663 0)
  (0.0659595 0.0141367 0)
  (0.0595364 0.0230289 0)
  (0.0518561 0.0394543 0)
  (0.0402212 0.0589952 0)
  (0.0683689 0.0802386 0)
  (-0.035246 0.111908 0)
  (0.0475846 0.0268177 0)
  (-0.0688704 -0.037637 0)
  (-0.286097 -0.0612426 0)
  (0.729706 0.441097 0)
  (-0.286775 0.194438 0)
  (-0.00697419 0.121205 0)
  (-0.00984579 0.0896514 0)
  (-0.00103303 0.0548033 0)
  (0.0182918 0.00652499 0)
  (0.0481841 -0.0488564 0)
  (0.0679204 -0.0931038 0)
  (0.0803068 -0.123013 0)
  (0.0859995 -0.138511 0)
  (0.086313 -0.140852 0)
  (0.083056 -0.132602 0)
  (0.0777124 -0.116553 0)
  (0.0718554 -0.0956043 0)
  (0.0669319 -0.0725251 0)
  (0.0642097 -0.0503407 0)
  (0.0644268 -0.033122 0)
  (0.0645459 -0.0258634 0)
  (0.0606464 -0.0255276 0)
  (0.0529011 -0.02506 0)
  (0.0444131 -0.0226325 0)
  (0.0375938 -0.0193647 0)
  (0.0329369 -0.0157844 0)
  (0.0306893 -0.0120405 0)
  (0.0309201 -0.00892303 0)
  (0.033129 -0.00777184 0)
  (0.0362293 -0.00751782 0)
  (0.0397804 -0.00681436 0)
  (0.0435486 -0.00460505 0)
  (0.0473212 -3.72248e-05 0)
  (0.0502533 0.00690484 0)
  (0.0515109 0.0157915 0)
  (0.0514448 0.0269273 0)
  (0.0516252 0.0422196 0)
  (0.0492555 0.0612578 0)
  (0.0765554 0.0858865 0)
  (0.0488225 0.104711 0)
  (0.0975839 0.0694711 0)
  (0.122219 0.0452521 0)
  (-0.138118 -0.00979677 0)
  (0.786259 0.482906 0)
  (-0.304572 0.17896 0)
  (0.0238415 0.0651055 0)
  (0.0574074 0.0553464 0)
  (0.083401 0.0302151 0)
  (0.126898 -0.0232283 0)
  (0.155579 -0.0716515 0)
  (0.169555 -0.106304 0)
  (0.170766 -0.126954 0)
  (0.161839 -0.134926 0)
  (0.145891 -0.132001 0)
  (0.126026 -0.120599 0)
  (0.104938 -0.103476 0)
  (0.0848736 -0.0832862 0)
  (0.0674429 -0.0622589 0)
  (0.0536386 -0.0428187 0)
  (0.0437059 -0.0279172 0)
  (0.0360618 -0.0199774 0)
  (0.0284403 -0.0175149 0)
  (0.0203055 -0.0167046 0)
  (0.0127843 -0.0154968 0)
  (0.00695082 -0.0140007 0)
  (0.00311412 -0.0124875 0)
  (0.00139692 -0.0110804 0)
  (0.00173326 -0.0102489 0)
  (0.00361396 -0.0104705 0)
  (0.00634707 -0.0110218 0)
  (0.0096765 -0.0109341 0)
  (0.0136395 -0.00927249 0)
  (0.0183656 -0.00495681 0)
  (0.0250755 0.00292095 0)
  (0.0308789 0.0126964 0)
  (0.0364804 0.0239329 0)
  (0.0438576 0.0374975 0)
  (0.0512643 0.0530334 0)
  (0.0763994 0.0730532 0)
  (0.088743 0.0801194 0)
  (0.125497 0.0519562 0)
  (0.167981 0.0427425 0)
  (-0.0316674 0.0967585 0)
  (0.894167 0.482495 0)
  (-0.056743 0.157452 0)
  (0.119203 -0.0234191 0)
  (0.206793 -0.059037 0)
  (0.252119 -0.0719629 0)
  (0.277413 -0.0886371 0)
  (0.286658 -0.104194 0)
  (0.279195 -0.114172 0)
  (0.257159 -0.117389 0)
  (0.224783 -0.114024 0)
  (0.18677 -0.104887 0)
  (0.147243 -0.0912152 0)
  (0.109521 -0.07483 0)
  (0.0759509 -0.057526 0)
  (0.0477924 -0.0405546 0)
  (0.0258266 -0.0256393 0)
  (0.0101649 -0.0151261 0)
  (-0.000721254 -0.0100225 0)
  (-0.00882145 -0.0089359 0)
  (-0.0155892 -0.00918325 0)
  (-0.0212038 -0.00945151 0)
  (-0.0254665 -0.00965513 0)
  (-0.0283599 -0.00991235 0)
  (-0.0299185 -0.0103334 0)
  (-0.0303027 -0.0111068 0)
  (-0.0299087 -0.0122833 0)
  (-0.0291324 -0.0134869 0)
  (-0.0280675 -0.0142156 0)
  (-0.0265217 -0.0139533 0)
  (-0.0240416 -0.0120859 0)
  (-0.0194706 -0.00781918 0)
  (-0.00888869 -0.000482398 0)
  (-0.000552533 0.00838029 0)
  (0.0107252 0.0170567 0)
  (0.0223416 0.0247261 0)
  (0.0435802 0.0333891 0)
  (0.0620248 0.0254458 0)
  (0.0807308 -0.00574402 0)
  (0.142168 0.0451705 0)
  (-0.45596 0.222366 0)
  (1.04638 0.427018 0)
  (0.495692 0.278805 0)
  (0.514733 0.173181 0)
  (0.54979 0.0955422 0)
  (0.530075 0.0420197 0)
  (0.482638 -0.000624185 0)
  (0.427775 -0.0320155 0)
  (0.367718 -0.0512935 0)
  (0.303256 -0.059662 0)
  (0.237763 -0.0595811 0)
  (0.175323 -0.053734 0)
  (0.118889 -0.0441478 0)
  (0.0707464 -0.0329944 0)
  (0.0314565 -0.0219818 0)
  (0.000371967 -0.0120124 0)
  (-0.0208813 -0.00519109 0)
  (-0.0330707 -0.00226252 0)
  (-0.040595 -0.00177458 0)
  (-0.0459836 -0.00265718 0)
  (-0.0505529 -0.00398472 0)
  (-0.0545271 -0.00531147 0)
  (-0.0579168 -0.00659967 0)
  (-0.0607804 -0.00787817 0)
  (-0.063241 -0.00917518 0)
  (-0.0655205 -0.0105121 0)
  (-0.0679561 -0.0118016 0)
  (-0.0708902 -0.0127554 0)
  (-0.0746089 -0.0129566 0)
  (-0.0794292 -0.0118812 0)
  (-0.0858384 -0.00885406 0)
  (-0.094537 -0.00305576 0)
  (-0.105241 0.00605411 0)
  (-0.116214 0.0180383 0)
  (-0.133565 0.0332109 0)
  (-0.161 0.0513511 0)
  (-0.20095 0.0703714 0)
  (-0.257323 0.0849416 0)
  (-0.320681 0.0920826 0)
  (-0.392168 0.0925404 0)
  (-0.660591 0.0868733 0)
  (-0.182098 -0.0199012 0)
  (0.100795 -0.0341469 0)
  (0.177462 -0.0541439 0)
  (0.164768 -0.0470145 0)
  (0.145897 -0.0341447 0)
  (0.122134 -0.0224039 0)
  (0.0904018 -0.012349 0)
  (0.05477 -0.00450374 0)
  (0.0199993 0.000872575 0)
  (-0.0127293 0.0043667 0)
  (-0.0365833 0.00555719 0)
  (-0.0539062 0.00549981 0)
  (-0.0651051 0.00441545 0)
  (-0.0711518 0.00229398 0)
  (-0.0745795 -0.000250867 0)
  (-0.0770071 -0.00288244 0)
  (-0.0792368 -0.00554946 0)
  (-0.081728 -0.00799702 0)
  (-0.0845971 -0.00991895 0)
  (-0.0876242 -0.0113852 0)
  (-0.0907827 -0.0124607 0)
  (-0.0941979 -0.0131944 0)
  (-0.0980392 -0.0136093 0)
  (-0.102474 -0.013624 0)
  (-0.107589 -0.0129931 0)
  (-0.113324 -0.0113153 0)
  (-0.119424 -0.008076 0)
  (-0.125403 -0.00271092 0)
  (-0.130523 0.00515638 0)
  (-0.134357 0.0158435 0)
  (-0.137398 0.0303705 0)
  (-0.140241 0.0491841 0)
  (-0.14403 0.0711912 0)
  (-0.14941 0.0917332 0)
  (-0.152846 0.099375 0)
  (-0.135002 0.0722025 0)
  (-0.0814368 -0.0315932 0)
  (-0.289012 -0.225867 0)
  (0.0338995 0.198776 0)
  (0.0140005 0.0646301 0)
  (-0.0319712 0.0123879 0)
  (-0.0550476 0.0114176 0)
  (-0.0728969 0.0173493 0)
  (-0.086076 0.0218072 0)
  (-0.0949298 0.0254851 0)
  (-0.101706 0.0285834 0)
  (-0.1066 0.030499 0)
  (-0.10987 0.0309706 0)
  (-0.111334 0.0304845 0)
  (-0.111466 0.0302244 0)
  (-0.110512 0.0304353 0)
  (-0.109023 0.0311788 0)
  (-0.107599 0.0326142 0)
  (-0.106526 0.034565 0)
  (-0.105956 0.0365137 0)
  (-0.105947 0.037859 0)
  (-0.106413 0.0379768 0)
  (-0.107375 0.0370322 0)
  (-0.108795 0.0356181 0)
  (-0.110651 0.033898 0)
  (-0.112908 0.0319692 0)
  (-0.115512 0.0299267 0)
  (-0.118355 0.0278799 0)
  (-0.121254 0.0259405 0)
  (-0.123912 0.0241896 0)
  (-0.125779 0.0228224 0)
  (-0.125926 0.0233036 0)
  (-0.123019 0.0269762 0)
  (-0.115438 0.0350255 0)
  (-0.102026 0.0485556 0)
  (-0.0831664 0.0673321 0)
  (-0.0601449 0.0863199 0)
  (-0.0360524 0.0971156 0)
  (0.00750458 0.0795172 0)
  (0.144312 0.00334389 0)
  (-0.207499 -0.138716 0)
  (-0.09302 -0.347393 0)
  (-0.447546 -0.138558 0)
  (-0.33405 0.0448446 0)
  (-0.291262 -0.0447262 0)
  (-0.250202 -0.0516426 0)
  (-0.23868 -0.0443785 0)
  (-0.230593 -0.0373977 0)
  (-0.221287 -0.0330022 0)
  (-0.209689 -0.0308151 0)
  (-0.196063 -0.0309603 0)
  (-0.181379 -0.0339941 0)
  (-0.167046 -0.0399315 0)
  (-0.154305 -0.0480295 0)
  (-0.143788 -0.0570331 0)
  (-0.135591 -0.0663568 0)
  (-0.12954 -0.07571 0)
  (-0.125235 -0.0846604 0)
  (-0.122217 -0.0927079 0)
  (-0.120142 -0.0993368 0)
  (-0.118835 -0.104037 0)
  (-0.118272 -0.106461 0)
  (-0.118461 -0.106746 0)
  (-0.119307 -0.105569 0)
  (-0.120635 -0.103165 0)
  (-0.122277 -0.0997067 0)
  (-0.124046 -0.0952814 0)
  (-0.125686 -0.0898757 0)
  (-0.126846 -0.0833546 0)
  (-0.127066 -0.0754317 0)
  (-0.125744 -0.0658591 0)
  (-0.121756 -0.0553028 0)
  (-0.11293 -0.0435897 0)
  (-0.0962925 -0.0302064 0)
  (-0.0697371 -0.0141728 0)
  (-0.034776 0.00524248 0)
  (0.024782 0.0302055 0)
  (0.0751964 0.0308114 0)
  (0.123786 0.00896797 0)
  (0.176899 -0.0320047 0)
  (-0.177033 -0.100385 0)
)
;

boundaryField
{
  floor
  {
    type noSlip;
  }
  ceiling
  {
    type noSlip;
  }
  sWall
  {
    type noSlip;
  }
  nWall
  {
    type noSlip;
  }
  sideWalls
  {
    type empty;
  }
  glass1
  {
    type noSlip;
  }
  glass2
  {
    type noSlip;
  }
  sun
  {
    type noSlip;
  }
  heatsource1
  {
    type noSlip;
  }
  heatsource2
  {
    type noSlip;
  }
  Table_master
  {
    type noSlip;
  }
  Table_slave
  {
    type noSlip;
  }
  inlet
  {
    type fixedValue;
    value uniform (0.277164 -0.114805 0);
  }
  outlet
  {
    type zeroGradient;
  }
} 	// ************************************************************************* //

