/*--------------------------------*- C++ -*----------------------------------*\
  =========                 |
  \\      /  F ield         | OpenFOAM: The Open Source CFD Toolbox
   \\    /   O peration     | Website:  https://openfoam.org
    \\  /    A nd           | Version:  6
     \\/     M anipulation  |
\*---------------------------------------------------------------------------*/
FoamFile
{
    version     2.0;
    format      ascii;
    class       volScalarField;
    location    "1000";
    object      alphat;
}
// * * * * * * * * * * * * * * * * * * * * * * * * * * * * * * * * * * * * * //

dimensions      [1 -1 -1 0 0 0 0];

internalField   nonuniform List<scalar> 
459
(
0.00133099
0.00146109
0.00149288
0.00156741
0.00163719
0.00170351
0.00176998
0.00182987
0.00186941
0.0018818
0.00186157
0.00180531
0.00171178
0.00158602
0.00144274
0.000602694
0.0007276
0.000820473
0.000819237
0.000790917
0.000752895
0.000704771
0.000657204
0.000614249
0.000576283
0.000542796
0.000513153
0.00048683
0.000463293
0.00044168
0.000420924
0.000399527
0.000384889
0.000351699
0.0018003
0.00453639
0.00440461
0.00514577
0.00588253
0.00660484
0.0072089
0.00768832
0.00810874
0.00843637
0.00863183
0.00865446
0.00844207
0.00783253
0.00616179
0.00148602
0.000892163
0.000636942
0.00135232
0.00188366
0.00226323
0.00245965
0.00244021
0.0019371
0.00166061
0.00146494
0.0013161
0.00119863
0.00110354
0.00102272
0.000947054
0.000873079
0.000807068
0.0007492
0.00088473
0.000461037
0.00218672
0.00619693
0.00551749
0.00686772
0.00756966
0.00809575
0.00850152
0.00885091
0.0092195
0.00958788
0.00991125
0.0101379
0.0102087
0.0100062
0.00923922
0.00700134
0.00153301
0.00122959
0.00180355
0.00233749
0.00281368
0.00312791
0.00303694
0.001004
0.000884256
0.000787747
0.00070984
0.00064645
0.000594379
0.00055129
0.00051569
0.000486893
0.000522364
0.000600838
0.00100024
0.000535813
0.00255426
0.00785156
0.00558373
0.00727042
0.00785807
0.00808425
0.00825321
0.00847519
0.00879993
0.00920029
0.00961938
0.0099923
0.0102504
0.0102914
0.0100674
0.00919769
0.00617381
0.00180915
0.00222872
0.00287851
0.00352293
0.00402932
0.00432173
0.00404168
0.00112787
0.00102233
0.000944794
0.00088415
0.000832256
0.000786606
0.00074292
0.000697785
0.000646536
0.000605334
0.000624253
0.00116105
0.000592021
0.0029276
0.00995471
0.00615801
0.00707618
0.00779492
0.00786899
0.00784456
0.00801505
0.00831827
0.00874331
0.00921764
0.00965155
0.00994042
0.0100265
0.00990498
0.00952899
0.00865665
0.00721076
0.0066929
0.00650953
0.00642391
0.00633829
0.00620417
0.00590359
0.0049447
0.0044586
0.00416466
0.00393673
0.00370101
0.0033705
0.00296029
0.00248374
0.00196613
0.00145057
0.00107518
0.00113895
0.000767423
0.000727233
0.000870965
0.00097383
0.00332283
0.012245
0.00839445
0.00723195
0.00774632
0.00782399
0.00780252
0.00790615
0.00814293
0.00854618
0.00905672
0.00953878
0.00984545
0.00989336
0.00970135
0.00936849
0.00899629
0.00863926
0.00841956
0.00821411
0.00795489
0.00765232
0.00732553
0.00696138
0.00649104
0.00608326
0.00573035
0.00539906
0.00506482
0.00468603
0.00422517
0.00367159
0.00302931
0.00233889
0.00175044
0.00131186
0.00102699
0.000905381
0.00131021
0.00101815
0.00367306
0.0137923
0.0115179
0.00928476
0.00886682
0.00849525
0.00815018
0.00803249
0.00820783
0.00865119
0.00923729
0.00977184
0.0100705
0.0100415
0.0097339
0.00933471
0.00907224
0.00901359
0.00898771
0.00880931
0.00846361
0.00802188
0.00753867
0.00703834
0.00653791
0.00609027
0.00569235
0.00532858
0.00499466
0.00469404
0.00441501
0.00401486
0.00348834
0.00287821
0.00232662
0.00183098
0.00150157
0.00140115
0.00141168
0.00113998
0.00373114
0.0119787
0.0108592
0.00997736
0.00914919
0.00838371
0.00795588
0.00796857
0.00839047
0.00908594
0.00983615
0.0103941
0.0105814
0.0103581
0.00985285
0.00935516
0.009134
0.00913194
0.00900168
0.00860784
0.00803525
0.0073768
0.00670574
0.00608519
0.00555893
0.00513292
0.00478275
0.00449222
0.00426051
0.00409476
0.00400016
0.00392674
0.00362195
0.00321944
0.00288903
0.00273649
0.00284313
0.0032775
0.0042589
0.00175386
0.00362265
0.00427384
0.00469623
0.00481543
0.00509975
0.00571455
0.00666511
0.00787202
0.00916742
0.0103282
0.0111269
0.0113906
0.0111036
0.0104214
0.00966517
0.00917298
0.00885999
0.00854191
0.00805305
0.00737289
0.00658404
0.00579877
0.00511056
0.00456521
0.00415385
0.00383882
0.00358503
0.00337169
0.00318667
0.00302086
0.00286707
0.00273179
0.00262721
0.00255949
0.00254909
0.00258503
0.00259619
0.00251661
0.00235248
0.00163078
0.00166699
0.00436459
0.00801953
0.0103651
0.0118933
0.0128075
0.0131637
0.013038
0.0125238
0.011709
0.0105914
0.00947727
0.00862929
0.00805568
0.00752533
0.00688584
0.00612574
0.00532432
0.00458338
0.00397171
0.00351377
0.00319186
0.00296617
0.00280255
0.00268026
0.00258886
0.00252379
0.00248433
0.00247456
0.00249024
0.00252374
0.0025756
0.00264141
0.00270056
0.00272243
0.00269655
0.00240167
0.00133479
0.00257962
0.00822605
0.0111753
0.0119581
0.012175
0.0119596
0.011352
0.0104848
0.00949514
0.00850695
0.00756478
0.00678338
0.00617048
0.00559738
0.00497186
0.00431707
0.00370223
0.00318953
0.00280515
0.00253847
0.00235899
0.00224087
0.00217246
0.00214197
0.00214179
0.0021662
0.00220919
0.00227039
0.00235058
0.00244677
0.00255721
0.00267753
0.00279508
0.00289146
0.0029651
0.00301266
0.00209311
0.00137446
0.00229385
0.00243626
0.00253782
0.00272621
0.00261538
0.0025176
0.00243071
0.00230252
0.00213006
0.00192371
0.00169496
0.00146393
0.00125793
0.00109295
0.00096943
0.000879511
0.000814741
0.000769346
0.000739899
0.000723875
0.000718755
0.000722222
0.000732575
0.000748398
0.000768573
0.000792921
0.000821539
0.000854797
0.000893458
0.000937975
0.000988413
0.00104529
0.00110921
0.00118081
0.00126015
0.00134997
0.00137833
0.00124953
0.00117186
0.0013456
)
;

boundaryField
{
    floor
    {
        type            compressible::alphatWallFunction;
        Prt             0.85;
        value           nonuniform List<scalar> 
29
(
0.000203241
8.47518e-05
0.000103219
0.000116698
0.000116519
0.000112427
0.000106907
9.98716e-05
9.28608e-05
8.64765e-05
8.07881e-05
7.57323e-05
7.12245e-05
6.71942e-05
6.35673e-05
6.02162e-05
5.69785e-05
5.36193e-05
5.13081e-05
4.60249e-05
4.60243e-05
6.32205e-05
7.46764e-05
8.31558e-05
0.000203239
8.47508e-05
8.9859e-05
0.000174204
0.000252081
)
;
    }
    ceiling
    {
        type            compressible::alphatWallFunction;
        Prt             0.85;
        value           nonuniform List<scalar> 
43
(
0.000314929
0.000333146
0.000346071
0.000370061
0.000356123
0.000343746
0.000332698
0.000316309
0.000294097
0.000267257
0.000237131
0.000206241
0.000178233
0.000155423
0.000138087
0.000125304
0.000116002
0.00010943
0.000105143
0.000102801
0.000102052
0.00010256
0.000104075
0.000106384
0.00010932
0.000112851
0.000116985
0.000121768
0.000127299
0.000133634
0.000140769
0.000148765
0.00015769
0.000167618
0.000178539
0.000190809
0.000194665
0.000177084
0.000166386
0.000190225
0.000481574
0.000560571
0.000351118
)
;
    }
    sWall
    {
        type            compressible::alphatWallFunction;
        Prt             0.85;
        value           uniform 0.000313662;
    }
    nWall
    {
        type            compressible::alphatWallFunction;
        Prt             0.85;
        value           nonuniform List<scalar> 6(0.000138369 0.000144606 0.000161605 0.000188404 0.000193797 0.000189881);
    }
    sideWalls
    {
        type            empty;
    }
    glass1
    {
        type            compressible::alphatWallFunction;
        Prt             0.85;
        value           nonuniform List<scalar> 9(0.000183372 0.000245352 0.000295188 0.000341804 0.000388503 0.000437313 0.000480118 0.000487319 0.000474381);
    }
    glass2
    {
        type            compressible::alphatWallFunction;
        Prt             0.85;
        value           nonuniform List<scalar> 2(0.000242959 0.000226787);
    }
    sun
    {
        type            compressible::alphatWallFunction;
        Prt             0.85;
        value           nonuniform List<scalar> 
14
(
0.000188097
0.000205715
0.000209995
0.000219995
0.000229309
0.000238121
0.000246913
0.000254806
0.000260001
0.000261627
0.000258972
0.000251573
0.000239217
0.000222484
)
;
    }
    heatsource1
    {
        type            compressible::alphatWallFunction;
        Prt             0.85;
        value           nonuniform List<scalar> 3(0.00010331 0.000124101 0.000138728);
    }
    heatsource2
    {
        type            compressible::alphatWallFunction;
        Prt             0.85;
        value           nonuniform List<scalar> 4(0.000209244 0.000127122 0.000127121 0.000215551);
    }
    Table_master
    {
        type            compressible::alphatWallFunction;
        Prt             0.85;
        value           nonuniform List<scalar> 9(0.000142976 0.000125995 0.000112112 0.000100757 9.14061e-05 8.36409e-05 7.71517e-05 7.17427e-05 6.73329e-05);
    }
    Table_slave
    {
        type            compressible::alphatWallFunction;
        Prt             0.85;
        value           nonuniform List<scalar> 9(0.000160296 0.000145555 0.000134614 0.000125983 0.000118541 0.00011195 0.000105598 9.8989e-05 9.14209e-05);
    }
    inlet
    {
        type            fixedValue;
        value           uniform 1.94e-05;
    }
    outlet
    {
        type            zeroGradient;
    }
}


// ************************************************************************* //
