/*--------------------------------*- C++ -*----------------------------------*\
  =========                 |
  \\      /  F ield         | OpenFOAM: The Open Source CFD Toolbox
   \\    /   O peration     | Website:  https://openfoam.org
    \\  /    A nd           | Version:  6
     \\/     M anipulation  |
\*---------------------------------------------------------------------------*/
FoamFile
{
    version     2.0;
    format      ascii;
    class       volScalarField;
    location    "1000";
    object      nut;
}
// * * * * * * * * * * * * * * * * * * * * * * * * * * * * * * * * * * * * * //

dimensions      [0 2 -1 0 0 0 0];

internalField   nonuniform List<scalar> 
459
(
0.00114439
0.00125509
0.00128233
0.00134632
0.00140623
0.00146317
0.00152022
0.00157163
0.00160553
0.00161611
0.00159868
0.00155033
0.00147
0.00136201
0.00123902
0.00051786
0.000625119
0.000704879
0.000703826
0.000679511
0.00064686
0.000605528
0.000564674
0.000527779
0.00049517
0.000466407
0.000440946
0.000418336
0.000398119
0.000379554
0.000361726
0.000343346
0.000330776
0.000302278
0.00154886
0.00389743
0.00378383
0.00442051
0.00505342
0.00567387
0.00619266
0.00660424
0.00696493
0.00724573
0.007413
0.00743195
0.0072493
0.00672586
0.00529128
0.00127611
0.000766198
0.000547305
0.00116177
0.00161818
0.00194428
0.00211307
0.00209643
0.00166423
0.00142671
0.00125863
0.00113076
0.00102985
0.000948161
0.000878735
0.000813733
0.000750185
0.000693482
0.000643778
0.000760273
0.000396236
0.00188255
0.00532513
0.00474053
0.00590073
0.00650405
0.00695621
0.00730484
0.00760467
0.0079205
0.00823575
0.00851227
0.00870595
0.00876617
0.0085922
0.00793376
0.00601227
0.0013165
0.00105625
0.00154926
0.00200797
0.00241714
0.00268723
0.00260919
0.000862598
0.000759724
0.000676815
0.000609886
0.000555429
0.000510695
0.000473678
0.000443095
0.000418356
0.000448842
0.000516285
0.000859515
0.0004605
0.00220042
0.00674865
0.00479819
0.00624782
0.00675336
0.00694825
0.00709372
0.00728405
0.0075618
0.00790393
0.0082621
0.00858096
0.00880183
0.00883692
0.0086448
0.00789835
0.0053019
0.00155373
0.00191421
0.00247253
0.00302636
0.00346169
0.00371321
0.00347281
0.00096917
0.000878517
0.000811923
0.000759833
0.000715256
0.00067604
0.000638508
0.000599726
0.000555684
0.000520232
0.000536459
0.000997753
0.00050882
0.00252368
0.00855903
0.00529268
0.00608197
0.00670056
0.00676516
0.00674473
0.0068906
0.00714931
0.00751206
0.00791724
0.00828821
0.0085354
0.00860921
0.0085053
0.00818306
0.00743453
0.00619331
0.00574911
0.00559223
0.00551932
0.00544634
0.00533159
0.00507366
0.00424985
0.00383226
0.00357976
0.00338395
0.00318141
0.00289732
0.0025447
0.00213503
0.00169005
0.0012468
0.000924069
0.00097882
0.000659576
0.000625229
0.000748912
0.000837377
0.00286608
0.0105324
0.00721709
0.00621741
0.00666054
0.00672861
0.00671034
0.00679803
0.00699907
0.0073427
0.00777864
0.00819081
0.00845335
0.00849465
0.00833056
0.00804573
0.0077271
0.0074214
0.00723365
0.0070581
0.00683624
0.00657695
0.00629666
0.00598409
0.0055801
0.00522979
0.00492656
0.00464185
0.00435454
0.00402885
0.00363255
0.00315652
0.00260423
0.00201056
0.00150458
0.0011275
0.000882679
0.000778269
0.00112634
0.000875377
0.00316993
0.0118706
0.00990873
0.00798703
0.007628
0.00730882
0.00701056
0.00690653
0.0070538
0.00743134
0.00793205
0.00838953
0.00864568
0.00862163
0.00835899
0.00801778
0.00779383
0.00774481
0.0077238
0.00757158
0.00727534
0.00689631
0.00648141
0.0060516
0.00562157
0.00523684
0.00489479
0.00458205
0.0042949
0.00403633
0.00379626
0.00345203
0.00299916
0.00247442
0.00200004
0.00157384
0.00129065
0.00120439
0.0012135
0.000980051
0.00322257
0.0103251
0.00935565
0.0085938
0.00787825
0.00721539
0.00684251
0.00684851
0.0072066
0.00780048
0.00844265
0.00892144
0.00908345
0.00889391
0.00846255
0.00803738
0.00784926
0.00784903
0.00773827
0.00740059
0.00690896
0.00634327
0.00576654
0.00523311
0.00478067
0.00441438
0.00411327
0.00386341
0.0036641
0.00352147
0.00344
0.00337669
0.00311443
0.00276815
0.00248389
0.00235259
0.00244423
0.00281782
0.0036619
0.00150879
0.00313236
0.00369187
0.00405281
0.00415126
0.00439006
0.00491218
0.00572269
0.00675386
0.00786246
0.00885787
0.00954503
0.00977495
0.00953261
0.00895063
0.00830457
0.00788422
0.00761679
0.00734441
0.00692483
0.00634048
0.00566245
0.00498734
0.00439558
0.00392661
0.00357284
0.0033019
0.0030836
0.00290009
0.00274092
0.00259829
0.002466
0.00234965
0.00225972
0.00220154
0.00219273
0.00222386
0.00223375
0.00216557
0.00202452
0.00140376
0.00138839
0.00365682
0.00676762
0.00879302
0.0101272
0.010936
0.0112634
0.0111732
0.0107449
0.0100547
0.00909966
0.00814546
0.00741865
0.00692681
0.0064716
0.0059222
0.00526883
0.00457974
0.00394256
0.00341649
0.00302262
0.00274575
0.00255162
0.00241087
0.00230568
0.00222706
0.00217109
0.00213716
0.00212877
0.00214227
0.00217114
0.00221582
0.00227257
0.00232362
0.00234265
0.00232058
0.00206696
0.00114895
0.00215725
0.00693752
0.00949668
0.0102014
0.0104118
0.0102449
0.00973612
0.00900048
0.00815642
0.00731115
0.00650356
0.00583308
0.00530685
0.00481447
0.00427675
0.00371369
0.0031849
0.00274392
0.00241328
0.00218389
0.00202949
0.00192789
0.00186904
0.00184281
0.00184267
0.00186367
0.00190067
0.00195333
0.00202234
0.00210511
0.00220016
0.00230374
0.00240496
0.00248801
0.00255152
0.00259261
0.00180141
0.00118302
0.00194391
0.00206407
0.00215008
0.00232798
0.00224017
0.00215925
0.00208642
0.00197761
0.00183037
0.00165366
0.00145744
0.00125905
0.00108204
0.000940213
0.000834012
0.000756688
0.000700985
0.000661943
0.000636616
0.000622834
0.000618434
0.000621419
0.000630327
0.000643943
0.000661302
0.000682253
0.000706876
0.000735493
0.000768757
0.000807061
0.000850461
0.000899406
0.000954406
0.00101603
0.00108431
0.00116163
0.00118608
0.00107527
0.00100863
0.00115855
)
;

boundaryField
{
    floor
    {
        type            nutkWallFunction;
        Cmu             0.09;
        kappa           0.41;
        E               9.8;
        value           nonuniform List<scalar> 
29
(
0.000148488
6.19926e-05
7.54799e-05
8.53242e-05
8.51942e-05
8.22068e-05
7.81753e-05
7.30369e-05
6.79158e-05
6.32521e-05
5.90964e-05
5.54026e-05
5.2109e-05
4.91641e-05
4.65137e-05
4.40648e-05
4.16985e-05
3.92433e-05
3.75542e-05
3.36931e-05
3.3693e-05
4.62661e-05
5.4641e-05
6.08405e-05
0.000148488
6.19925e-05
6.57275e-05
0.000127319
0.000184149
)
;
    }
    ceiling
    {
        type            nutkWallFunction;
        Cmu             0.09;
        kappa           0.41;
        E               9.8;
        value           nonuniform List<scalar> 
43
(
0.000227096
0.000240163
0.000249468
0.000268736
0.000259363
0.000250659
0.00024279
0.000230965
0.000214845
0.000195307
0.000173339
0.000150789
0.000130331
0.000113662
0.000100991
9.16469e-05
8.48461e-05
8.00413e-05
7.69065e-05
7.51946e-05
7.46472e-05
7.50189e-05
7.61267e-05
7.7816e-05
7.99634e-05
8.25461e-05
8.55695e-05
8.90674e-05
9.31134e-05
9.77468e-05
0.000102966
0.000108814
0.000115342
0.000122604
0.000130594
0.000139572
0.000142397
0.00012954
0.000121737
0.000139219
0.000353876
0.000411555
0.000250028
)
;
    }
    sWall
    {
        type            nutkWallFunction;
        Cmu             0.09;
        kappa           0.41;
        E               9.8;
        value           uniform 0.000227161;
    }
    nWall
    {
        type            nutkWallFunction;
        Cmu             0.09;
        kappa           0.41;
        E               9.8;
        value           nonuniform List<scalar> 6(0.000101397 0.00010595 0.000118374 0.000138115 0.000142056 0.000139229);
    }
    sideWalls
    {
        type            empty;
    }
    glass1
    {
        type            nutkWallFunction;
        Cmu             0.09;
        kappa           0.41;
        E               9.8;
        value           nonuniform List<scalar> 9(0.000137702 0.000183856 0.00022091 0.000255544 0.000290221 0.000326444 0.000358214 0.000363696 0.000354333);
    }
    glass2
    {
        type            nutkWallFunction;
        Cmu             0.09;
        kappa           0.41;
        E               9.8;
        value           nonuniform List<scalar> 2(0.0001792 0.000167346);
    }
    sun
    {
        type            nutkWallFunction;
        Cmu             0.09;
        kappa           0.41;
        E               9.8;
        value           nonuniform List<scalar> 
14
(
0.000137574
0.000150327
0.000153446
0.000160745
0.000167543
0.000173974
0.00018039
0.000186149
0.000189936
0.000191116
0.000189171
0.000183766
0.000174744
0.000162531
)
;
    }
    heatsource1
    {
        type            nutkWallFunction;
        Cmu             0.09;
        kappa           0.41;
        E               9.8;
        value           nonuniform List<scalar> 3(7.54954e-05 9.07025e-05 0.000101395);
    }
    heatsource2
    {
        type            nutkWallFunction;
        Cmu             0.09;
        kappa           0.41;
        E               9.8;
        value           nonuniform List<scalar> 4(0.000152733 9.27965e-05 9.27965e-05 0.000157342);
    }
    Table_master
    {
        type            nutkWallFunction;
        Cmu             0.09;
        kappa           0.41;
        E               9.8;
        value           nonuniform List<scalar> 9(0.000104414 9.20145e-05 8.18768e-05 7.35846e-05 6.67563e-05 6.10859e-05 5.63472e-05 5.23973e-05 4.91772e-05);
    }
    Table_slave
    {
        type            nutkWallFunction;
        Cmu             0.09;
        kappa           0.41;
        E               9.8;
        value           nonuniform List<scalar> 9(0.000117079 0.000106317 9.83291e-05 9.20275e-05 8.65942e-05 8.17808e-05 7.71427e-05 7.23156e-05 6.67874e-05);
    }
    inlet
    {
        type            calculated;
        value           uniform 0.000100623;
    }
    outlet
    {
        type            calculated;
        value           nonuniform List<scalar> 2(0.00194391 0.00206407);
    }
}


// ************************************************************************* //
