/*--------------------------------*- C++ -*----------------------------------*=========                 |
  \      /  F ield         | OpenFOAM: The Open Source CFD Toolbox
   \    /   O peration     | Website:  https://openfoam.org
    \  /    A nd           | Version:  6
     \/     M anipulation  |
\*---------------------------------------------------------------------------*/
FoamFile
{
    version     2.0;
    format      ascii;
    class       volScalarField;
    location    "1700";
    object      PPD;
}
// * * * * * * * * * * * * * * * * * * * * * * * * * * * * * * * * * * * * * //

dimensions      [0 0 0 0 0 0 0];

internalField   nonuniform List<scalar> 
459
(
59.668911240623146
47.97041336404641
46.609474756542916
45.38691657116359
44.560655776206765
44.0772369388442
43.910797123362535
44.082636144939
44.55389997480964
45.41407858808045
46.71768807699864
48.529172909286736
50.96842162277451
53.2771901343681
53.48536766795668
56.78817650640989
56.11280179079944
55.87886951848881
55.982847743404584
56.08681270409361
56.216749199875494
56.12134073824147
55.90016589935649
55.85131528546128
55.90388310577938
55.96074355627655
56.066421742076045
56.176221113029484
56.33531802500242
56.59845672496679
57.11165554174525
57.51461741452307
57.67014168869013
58.29166320711582
57.67583180002858
49.124893839601924
48.701935043755455
47.58018699557674
46.91938818990603
46.50959392860255
46.389033396686955
46.49321373418215
46.72616011112277
47.15546018949742
47.8936966638651
49.107363426383706
50.864433762855654
52.88690996090881
52.88690996090881
52.83487928847838
52.67879863856913
54.74621343313999
55.670876036406575
55.462837773874305
55.53184227199005
55.1903779858504
54.937531623532635
54.86347905618229
54.87118252256327
54.93308585189155
54.95136001579155
54.96091676305859
54.974809546859724
54.997038806582296
55.055833201041715
55.1676582119145
55.56047049408765
56.50252608417254
56.78817650640989
56.286987350640956
59.99818408873111
49.280759739957574
50.612744804288916
50.091429143039804
49.94801051580165
49.916267494880444
49.99952354816068
50.07845379401484
49.85358723488137
49.50973599515037
49.30783021233487
49.55029724196498
50.433913196783124
52.00104047420552
52.75683675354462
52.86089440010235
52.88690996090881
49.94125903900158
52.23884809238156
52.966004567569136
53.438270032384196
53.93217889569042
54.28306351399799
54.44001504639271
54.856301167320744
55.11761467161448
55.220716844784384
55.27391181095973
55.29761994886921
55.26537130388048
55.18445826156811
54.91947430869622
54.99493057075096
55.957252265551546
55.502061077148056
52.94340699350476
64.04121896553279
49.5820269377977
52.12219414199575
52.65142104781519
53.58361778923788
54.43546346923849
55.11868189439332
54.98284666146036
53.6924359597874
51.776316728590615
50.11267282545742
49.16093629090634
49.19705538202941
50.22178163690776
51.863693868803644
52.91292596040679
52.296654154763004
50.099311072935926
49.91325087970016
51.40641293495552
52.77926297350927
53.89875651215612
54.84158734100052
55.52439606403855
55.73408433522128
55.61876241298474
55.55444651188865
55.54911230686282
55.609431892568345
55.75259120867892
56.08344467181738
56.68460700367494
57.89151255019148
57.5358619089995
56.744389303700295
54.397668560185735
50.565636348581094
68.71454879150026
50.70741027935752
53.59462215930155
55.1083704215723
57.65082949205357
60.51659991368227
61.993801989042026
59.87982520026754
56.144366643117245
52.3930916383869
49.617028744114954
48.034749958353586
47.7125184272083
48.469524059942245
49.965854684583626
51.43197078922792
51.90525680697996
51.76382509732318
52.18860421135021
53.484789670026785
55.054413808038966
56.459265240288495
57.632359117192806
58.4210217303315
58.83465158841046
59.0045909398186
58.98894299587413
58.926128215860594
58.83106397292985
58.70683259376463
58.66321849458816
58.686410010006846
58.78572039996839
58.06832515299804
56.63939619774255
53.41749669545499
53.08768975479583
60.020795668852294
59.28497809019611
50.45178599380768
73.15211487876972
53.01633296442016
56.45087824659418
57.97307018138259
61.66196106443229
63.13793991240138
63.11497462283108
58.91038832716726
54.77111658985899
50.90301156145267
47.96538999942956
46.35084881062462
46.19976043362498
47.27213661776179
49.18872434997071
51.33779459283551
53.065418784460924
54.28475500434061
55.5796115767464
57.17746995654331
58.05870570291578
58.80881443799198
59.4025375188266
59.8663616436643
60.252275460345544
60.53490573203399
60.765902346456826
60.91977266782687
60.9454076072819
60.89413482045889
60.68892866485143
60.4321687447045
59.9429491128699
58.58229575223094
56.75623823829706
53.39602557888751
53.26983523966485
54.066859312914794
53.990255186418295
54.654226523857716
77.3020009948508
58.188837813203676
64.55466770284262
63.10753995868779
62.92283858743261
61.76803337316841
59.12440939177365
55.349800023401656
51.17748001627801
47.4607510919492
44.97581137914467
44.136964639080944
44.87991057806584
46.91259613036944
49.83426628677304
53.11984467936243
55.51485123631337
56.76221389081848
57.90332385306241
58.886319806580666
59.71183903812233
60.380784003240244
60.89413482045889
61.278392241304005
61.559745450285384
61.764125099564275
61.89175655043888
61.917272919526376
61.89175655043888
61.73858896437311
61.45747895325812
61.07353830434817
60.63759881002953
59.97967857541288
57.80430907217277
54.70664858955023
53.47759577559263
52.888657027890886
51.489358282196896
56.10701376607284
82.83244119920109
74.55766972150087
72.45888990840248
67.46616829204689
64.53028749532943
60.45227204722947
55.072583158196885
49.43870571610465
44.7044746866868
41.69695605180837
40.77197540945142
41.82476710593917
44.51254111749347
48.40900985054548
53.0686137195471
55.644873589485684
57.38497337600919
58.80881443799198
59.89210686295918
60.71458938304313
61.35516226974946
61.840713858580116
62.197730653112345
62.42688606147929
62.604919685384374
62.70657366873604
62.73197802042263
62.68116564856918
62.579497099502575
62.42688606147929
62.146768980861
61.73858896437311
61.30398532575554
60.81720393987826
60.2265658351992
59.66031222600612
58.560857282894474
57.94679581911266
54.62867830104299
50.01217318524657
89.48427147586807
85.21649950759665
78.64234754660424
70.2424365199457
60.176181585576764
48.89579600789287
39.90739386992369
34.52079363549389
32.55360874868285
33.53679053896224
36.823572736798575
41.9307396467806
48.169548542026426
53.016994135413064
55.90486528048502
58.31753854513304
59.8663616436643
60.91977266782687
61.68750693593258
62.27414724587251
62.70657366873604
62.829987271740464
62.75610963985174
62.650765613535924
62.51536609489775
62.297878402291474
62.0272810006625
61.66615681492109
61.25096084235463
60.728619823446685
60.1296232430616
59.465671371280145
58.85989008622232
58.08415339757886
57.231014267245456
56.448823462142585
55.94992269744662
55.66521946028021
55.08991824602913
53.42663279542919
98.97033331423968
66.26096912290924
31.150891493259948
8.10648462046737
5.549445496684612
12.321200943059921
23.585964798581855
35.64378424136815
43.95658332746628
50.62634061357585
54.838509341691555
57.64422474665575
59.124902208119785
59.94658656151102
60.58466953718405
61.033678906560816
61.301687471642296
61.42734843655271
61.46212845058738
61.397855629344434
61.282714062918025
61.10786188839669
60.88934931502259
60.61989298310192
60.35132840221984
60.03897258231377
59.72366267430269
59.45179371998556
59.245286198442706
59.10131365012967
59.0097560000938
58.95270866427897
58.90498551401371
59.014475501942655
59.58348790400103
61.465924844118334
65.25236169864807
56.8282328764714
92.44274068223777
25.809641564641595
5.033197633514007
11.695817921121574
21.911825652572873
30.35267803348158
37.72786298316771
43.8917646619892
48.81001590553112
52.53639021994692
55.12050945378838
56.908170930684285
58.16311935807961
59.04194803723933
59.64295794036041
60.03033987398707
60.28480494308552
60.416035709049254
60.522719267516194
60.53983308636747
60.53929650852784
60.49319229816447
60.42791709475105
60.345027187591334
60.249063026019684
60.12207493935444
60.057932631742204
60.00267233343131
60.04184717019999
60.19841840773194
60.598500156751086
61.210614993301476
61.85156975611669
62.392568896748834
63.025023549263494
65.03096895264103
61.568499742397485
58.92496983664521
21.031561445844062
26.568877231070843
21.72658611935131
7.627499984394319
21.011039922215446
30.03187275934394
36.40839154474341
41.703632047981756
46.10509522731796
49.81227968518036
52.79055711093628
55.12578832936552
56.78020414977012
57.9423370494917
58.663622608123234
59.06897662825534
59.249531105079086
59.305385768077414
59.30302798402336
59.271035659871075
59.25129429043228
59.23558030230505
59.23981719014237
59.23441291546464
59.272411179928
59.300810265975464
59.38003727106437
59.46882318444446
59.64266650665646
59.90293065578551
60.28341372311309
60.93228525758373
62.05567089773402
64.12100843786665
65.57638409744408
65.89990385252177
64.15323074597735
61.907334638292795
59.675948967885226
59.94977609475595
)
;

boundaryField
{
    ".*"
    {
        type            zeroGradient;
    }
}


// ************************************************************************* //
