/*--------------------------------*- C++ -*----------------------------------*=========                 |
  \      /  F ield         | OpenFOAM: The Open Source CFD Toolbox
   \    /   O peration     | Website:  https://openfoam.org
    \  /    A nd           | Version:  6
     \/     M anipulation  |
\*---------------------------------------------------------------------------*/
FoamFile
{
    version     2.0;
    format      ascii;
    class       volScalarField;
    location    "1100";
    object      PMV;
}
// * * * * * * * * * * * * * * * * * * * * * * * * * * * * * * * * * * * * * //

dimensions      [0 0 0 0 0 0 0];

internalField   nonuniform List<scalar> 
459
(
1.6857437487669176
1.4728683855229678
1.4486820609734505
1.425969494201454
1.410059282649809
1.3999741855337113
1.3956278072220294
1.3970479201544064
1.4033511537870955
1.4157358823124337
1.4352342730069079
1.4635980216046625
1.5021743437228086
1.5477228220332622
1.5662867199338113
1.6188143024796888
1.606878166651286
1.6025808694718537
1.6030583543888441
1.604968275450611
1.6064006966572633
1.6011694450035268
1.5980964073000217
1.59743072155876
1.5978217093736735
1.5986699969389606
1.5999240896269578
1.601693124406871
1.603890259907847
1.6084713668415722
1.617221122364771
1.6221562065348198
1.6240658234516328
1.6340907991614797
1.651855580952183
1.4939014229388228
1.4871322492904362
1.4668593910911374
1.454191381543115
1.446629031377593
1.4431388956388795
1.4438671062998103
1.4474564830347654
1.4527029686576487
1.4628042569756923
1.4803039362533337
1.5056278236390102
1.5366226717457536
1.5572130163551812
1.5557800482171598
1.5529140667208354
1.5741768205124835
1.5997159210433294
1.5958958865309416
1.5932200100847782
1.585830076979064
1.581258563865665
1.5795871133745718
1.5795696408714615
1.5798443545509424
1.5797723590082684
1.5790941853843514
1.5789520421190169
1.5789481497775906
1.5791305236720514
1.5807498259447752
1.587071021782296
1.603535837447109
1.6073556347713451
1.5952185017731733
1.6969350837521096
1.4966197416687905
1.5220722367597963
1.5119752737533558
1.509375920005086
1.5083579630117423
1.509077810484937
1.5112941892330831
1.509512994669843
1.5034773746964403
1.4977735288998844
1.4977680633036263
1.5071635903115221
1.5270979928435744
1.55625770594214
1.5567353619887552
1.5567353619887552
1.4920764920975897
1.5377443282584005
1.5527087258768741
1.5607933557073574
1.5681564424273895
1.5728937809589825
1.5758623221356884
1.5812183644057147
1.5843419773650924
1.5851022457326356
1.5847697158642629
1.5839764267913587
1.583107081889562
1.5804403650772225
1.5748749273414446
1.5752245477570068
1.5916880171141679
1.5826498862896636
1.5346588597807203
1.7748467674358805
1.5022345784933118
1.5487515415658486
1.5564516670367798
1.5723694098574443
1.5871227410671214
1.5987442628427382
1.6029394277441047
1.588496505002031
1.558977014196074
1.5259271548443338
1.5022104385801527
1.493922545731001
1.5031353502417624
1.5280686244182005
1.5572130163551812
1.5559643833766905
1.5177222323841655
1.5058363233764651
1.5318858588767437
1.5560722477417257
1.5731854400571932
1.586696113415253
1.5946858191154942
1.5948951573745112
1.591155689887004
1.5882847403422975
1.5861861173357148
1.585736646010186
1.586396856887074
1.5911719396404957
1.6015173005860617
1.6226509874145196
1.61707151571513
1.6038813162490675
1.5608363129197034
1.4898595353142576
1.8651257526178049
1.5226910045503423
1.5748859870673837
1.5989652403790937
1.6403969533220035
1.6869205892384378
1.7257047401088812
1.7112997144950686
1.6524292715239204
1.5870099290468782
1.5276705962934833
1.4886734858910013
1.4711526415812521
1.4749173002219287
1.495729136077817
1.5229889975655178
1.5385018584859218
1.5386191036723187
1.5439339102287273
1.5665706223695668
1.5938717317099786
1.6171625073870994
1.633613439070018
1.6398189648649608
1.6455468412928305
1.6479487794796595
1.644789367020216
1.6413301043849953
1.6379456687638712
1.63423516338128
1.6327795630494353
1.6332676515224185
1.6353888254934685
1.6234146355786536
1.5991388140271854
1.5413309054600122
1.536066835958612
1.659865243931473
1.6424201211237126
1.4808644377642464
1.954750017805694
1.5654422735478957
1.6267649964935988
1.6487981157767377
1.7049228225900241
1.7385812340185522
1.762898581612416
1.70886894641506
1.6357325222170924
1.5643791304863404
1.5020473410252224
1.4604472519497653
1.443520665003029
1.4512702565567168
1.477938370553197
1.5138956658366645
1.5481415435213108
1.5737133550053626
1.5978461494784892
1.6221562065348198
1.636000219657905
1.6474560685528257
1.6555699185152648
1.6622514626323157
1.6670237419456195
1.6708414124864053
1.67322738703333
1.6746589459507908
1.6746589459507908
1.67322738703333
1.6694098020397852
1.6646376287232731
1.6541726400824406
1.6303661622592622
1.5987561649786948
1.5387848686393713
1.537372948725901
1.551249939266336
1.5487281944944584
1.5586458186274792
2.043423460748701
1.6604421531075035
1.7767579284334039
1.7433885890678706
1.7379280708741005
1.7342227923434261
1.700363202941733
1.6445749942735644
1.5745836182385171
1.5031693475113024
1.4466487922120341
1.414735555096531
1.4121226655305856
1.4363590094006342
1.4800664324415431
1.5346917514348462
1.5896880810317486
1.6116527632082356
1.6312266089084255
1.6479333702703292
1.661296981450739
1.6708414124864053
1.6779991744425107
1.683247889487705
1.6865878426668284
1.688973457202704
1.6904047992731177
1.6904047992731177
1.688973457202704
1.6861107131161641
1.6808621427020334
1.6741817618007886
1.6665465235430597
1.6538361296236643
1.6155650701376847
1.5602794632830317
1.5394610462086025
1.5281572793283937
1.5019369640888973
1.586943959009677
2.1748625533880506
1.9767370727764877
1.9332468116119943
1.8314711763788043
1.7819804741080618
1.7269132434473977
1.648352726602748
1.5558309735628602
1.4657712164677645
1.3956259927971397
1.3579162037770331
1.3559807548762124
1.3885440431055922
1.4454530642720003
1.519363885613434
1.5844350839749617
1.6154723042409844
1.6417282893201322
1.6617742230926893
1.6756133077729871
1.6856335813560475
1.6927903247856384
1.6975612075710864
1.7009006911047801
1.7028089173742085
1.7037630168060405
1.7037630168060405
1.7028089173742085
1.7009006911047801
1.6975612075710864
1.6927903247856384
1.6851564473885376
1.6779991744425107
1.6694098020397852
1.659865243931473
1.6507971376002888
1.6291837831640494
1.6177202513545734
1.556807283893951
1.473384908712705
2.3700444861311527
2.2357263034290384
2.0666494110844202
1.897878589015312
1.7427839409481485
1.5835437188922938
1.4223819192920368
1.2958043735846305
1.2240423117200316
1.2093786228792425
1.2450057842366924
1.31869331274203
1.4185634272626344
1.531417320118571
1.5782267181886902
1.6235884221328956
1.654615378871783
1.6756133077729871
1.6894505734513765
1.6994694974915574
1.706148225277923
1.7083782569122294
1.7057673540363292
1.7025416764834804
1.6991382627012435
1.6946302978318808
1.6891826502027425
1.6826271418143164
1.6747267028199275
1.6654337537678996
1.6548353595568182
1.6430071647596936
1.6324299845074102
1.6190168105152416
1.6035885700799088
1.5899596598772983
1.5804491325740366
1.5754096750295123
1.5645872981921085
1.533504663054736
-2.943077725507253
-1.534525784303301
-0.9032062891901864
-0.3181028302294465
0.14961519363014125
0.536253420482418
0.8564693316501528
1.124273249665037
1.3225150584981697
1.4453997170835249
1.5428826616975828
1.6025808694718537
1.6431602614915735
1.6639613370863149
1.6729970416707785
1.6793277557912896
1.6820264026997178
1.68261250059298
1.6816904165813689
1.679593576725152
1.6765285603539013
1.6727513822918707
1.6685791650250115
1.6634473601101376
1.6578776507635575
1.652058355918098
1.6462917677013063
1.6414648917020904
1.6379797729424874
1.6353438446757556
1.6341902305729192
1.633653827212914
1.6337468030090994
1.6357064654773286
1.646217231394818
1.6808402586863458
1.7512314127784216
1.592288551174906
-2.370787857671526
-0.8816059752446358
0.09114635039273516
0.5587332037679569
0.8635871075303697
1.0909404731984702
1.239143599713996
1.353092991497318
1.4419818096730381
1.5103962594192348
1.562261648827369
1.597022381068078
1.6206273139203797
1.6369725401753148
1.647771642002216
1.654392040047355
1.6582725144216917
1.6607744055992046
1.6620583433993938
1.6619274412272558
1.6613704391460482
1.660432084559646
1.6591460466982964
1.6570733520211383
1.6552913608757578
1.6534849157452056
1.6519195300873546
1.6510894218775096
1.6521094697386156
1.6554027873598265
1.6633104008078992
1.675269383900108
1.6878578126079464
1.6980308998523177
1.7099105102474759
1.7475444451561057
1.6824296174909317
1.6314762926681179
-0.8944962324080303
-1.0331051789633858
-0.9115340694312303
0.3128899217624473
0.8261862487688284
1.0512613756765898
1.1915479483542166
1.299140458204572
1.3848049476502549
1.4542189690754121
1.5107810835965385
1.5548034208339134
1.5881532649300043
1.610277872792474
1.6234114609944699
1.6299338005988395
1.6322665029998913
1.63217823351863
1.631627990532181
1.6310704504189886
1.630762302566442
1.630893190630341
1.6314081751590612
1.6317563825144357
1.6324241810530633
1.6339452502643417
1.6354313952714365
1.6376353885136432
1.6409696579451385
1.6465411849186764
1.6543384751621055
1.6666264670502278
1.6887862726499643
1.7279534134765921
1.7590845304588505
1.7657590119218438
1.7329945814150933
1.6888680869846109
1.6460032073722664
1.6509132214062103
)
;

boundaryField
{
    ".*"
    {
        type            zeroGradient;
    }
}


// ************************************************************************* //
