/*--------------------------------*- C++ -*----------------------------------*\
  =========                 |
  \\      /  F ield         | OpenFOAM: The Open Source CFD Toolbox
   \\    /   O peration     | Website:  https://openfoam.org
    \\  /    A nd           | Version:  6
     \\/     M anipulation  |
\*---------------------------------------------------------------------------*/
FoamFile
{
    version     2.0;
    format      ascii;
    class       volScalarField;
    location    "200";
    object      alphat;
}
// * * * * * * * * * * * * * * * * * * * * * * * * * * * * * * * * * * * * * //

dimensions      [1 -1 -1 0 0 0 0];

internalField   nonuniform List<scalar> 
459
(
0.00186503
0.00209465
0.00219615
0.0023316
0.00247244
0.00259763
0.00266769
0.00267191
0.00260998
0.00247106
0.00227707
0.00208721
0.00186538
0.0016562
0.00142911
0.00085612
0.00100888
0.00118614
0.00128542
0.00129255
0.00125826
0.00117979
0.00109633
0.00102103
0.000955249
0.000897911
0.000847762
0.000803453
0.000764013
0.00072804
0.000693642
0.000658104
0.000621915
0.000561907
0.00235817
0.00674478
0.0071597
0.00845423
0.00959428
0.0103982
0.011018
0.0114262
0.0115847
0.0114005
0.0109114
0.0102053
0.00925617
0.00750703
0.00505309
0.00176068
0.00141819
0.000830947
0.00221531
0.00354864
0.00461973
0.00522723
0.0050978
0.00354104
0.0029115
0.00250816
0.00221872
0.002
0.0018289
0.00169294
0.00156818
0.00143386
0.00130289
0.00118525
0.00123618
0.000644697
0.00275497
0.00950077
0.00935545
0.0104023
0.0110461
0.0115385
0.0120868
0.0126783
0.0131791
0.0133688
0.0132594
0.0128788
0.0122105
0.0109689
0.00894378
0.00571615
0.0017295
0.00112064
0.00238332
0.00396206
0.00555236
0.00659851
0.00620846
0.00160797
0.0013937
0.00122135
0.00108375
0.000973245
0.000883623
0.00081027
0.000751454
0.000708206
0.000798148
0.000954135
0.00140401
0.000699344
0.00312845
0.0117704
0.0105402
0.0110675
0.0110072
0.0110616
0.0114853
0.0122055
0.0129195
0.0134256
0.0136279
0.0135297
0.0131585
0.0124244
0.0111248
0.0088574
0.00469673
0.00196457
0.00249471
0.00387994
0.00578939
0.00754693
0.00859024
0.00783323
0.00180619
0.0016184
0.00147383
0.0013573
0.00125579
0.00116174
0.00107016
0.000976899
0.000874942
0.000813092
0.000908362
0.00159154
0.000739471
0.00349349
0.0141052
0.0125703
0.0121281
0.0110359
0.0106494
0.0109614
0.0117523
0.0126523
0.013353
0.0137083
0.0137234
0.0134754
0.0130181
0.0123002
0.0111208
0.00916793
0.00816956
0.00889439
0.00992903
0.0109203
0.0115696
0.0117189
0.011093
0.00876872
0.00750852
0.00666654
0.00588223
0.00511331
0.00434104
0.00355928
0.00277897
0.00202391
0.00139275
0.00113616
0.00151298
0.000866267
0.000812814
0.000963242
0.00107752
0.00376537
0.0154362
0.0147999
0.0125242
0.01084
0.0102882
0.0107173
0.0117328
0.0128564
0.0137055
0.0141213
0.0141511
0.0139559
0.0137352
0.0135478
0.0133282
0.0130046
0.0131969
0.0139391
0.0144379
0.0145848
0.0143647
0.0138074
0.0129036
0.0115652
0.0103179
0.0091601
0.00806592
0.00700546
0.00595176
0.00488772
0.0038315
0.00283018
0.00198185
0.00153521
0.00150288
0.00111505
0.00100771
0.0014705
0.00113293
0.00377708
0.0123111
0.0116855
0.0102002
0.00939982
0.00963526
0.0107557
0.012313
0.013758
0.0147002
0.0150708
0.0150629
0.0150102
0.0151379
0.0154285
0.0157488
0.0160469
0.0164725
0.0168328
0.0167187
0.01621
0.0153997
0.0143812
0.0132088
0.0119197
0.0106676
0.00949641
0.00840265
0.00736042
0.00634402
0.00531674
0.00432444
0.00339774
0.0025832
0.00208813
0.0018372
0.00155035
0.00149716
0.00152741
0.00128482
0.00368851
0.00663526
0.00678193
0.00697534
0.00777821
0.00953562
0.0118856
0.014108
0.0156378
0.0162606
0.0162829
0.0163593
0.0166155
0.0168868
0.0171928
0.0174539
0.0176364
0.0177102
0.0175098
0.0168784
0.0158854
0.0146619
0.0133219
0.0119366
0.0105781
0.00934042
0.00822657
0.00721916
0.00630997
0.00549768
0.00477701
0.00414323
0.00357528
0.00304163
0.00269552
0.00267375
0.00286156
0.00354666
0.00496208
0.00193536
0.00361651
0.00360467
0.00625508
0.00679208
0.00995679
0.0136515
0.0162262
0.0174407
0.0178352
0.0175723
0.0171886
0.0170924
0.017285
0.0174566
0.017531
0.0174972
0.0173223
0.0169226
0.0161977
0.0151165
0.0137567
0.0122395
0.0106769
0.00917201
0.00780274
0.0065881
0.00551488
0.00459238
0.00385116
0.00330689
0.0029414
0.00271716
0.00260063
0.00257345
0.00262355
0.00272321
0.00278652
0.00273544
0.00256352
0.0018101
0.00154255
0.00725151
0.0143922
0.0172153
0.01763
0.0172509
0.0167372
0.016356
0.016159
0.0161165
0.0160994
0.0159968
0.0157957
0.0154761
0.014977
0.014218
0.0131505
0.0117966
0.0102562
0.0086775
0.00721268
0.00597111
0.00498495
0.00422813
0.00366301
0.00325894
0.00298672
0.00281729
0.00272662
0.00269904
0.00272567
0.00279895
0.00290331
0.00300868
0.00308764
0.00315426
0.00284877
0.00156153
0.00365108
0.0122814
0.0138464
0.0139383
0.0135517
0.013112
0.0127378
0.0124235
0.0121517
0.0119122
0.0116844
0.0114442
0.0111576
0.0107663
0.010202
0.00942107
0.0084447
0.00737028
0.00633906
0.00546885
0.00480515
0.00432655
0.00398247
0.00372626
0.00352739
0.00336929
0.00324497
0.00315416
0.00310073
0.00308959
0.00312345
0.00319927
0.00330378
0.00342235
0.00357834
0.00380684
0.00254771
0.00162331
0.00263244
0.0027788
0.00289747
0.00273386
0.00251166
0.00237184
0.00224869
0.00213675
0.00203411
0.00194206
0.00186213
0.00179286
0.00173031
0.00166982
0.00160672
0.00153725
0.00146008
0.00137777
0.00129685
0.00122492
0.0011673
0.00112542
0.00109772
0.0010816
0.0010748
0.00107601
0.00108476
0.00110109
0.00112533
0.00115796
0.00119956
0.00125096
0.00131333
0.00138803
0.00147573
0.00158195
0.00162876
0.00150596
0.00139103
0.00150799
)
;

boundaryField
{
    floor
    {
        type            compressible::alphatWallFunction;
        Prt             0.85;
        value           nonuniform List<scalar> 
29
(
0.000201225
0.000121708
0.000143392
0.000168084
0.000181731
0.000182711
0.000178018
0.00016722
0.000155644
0.000145113
0.000135838
0.000127694
0.000120521
0.000114142
0.000108428
0.000103186
9.81446e-05
9.29043e-05
8.75327e-05
7.854e-05
7.85391e-05
9.09202e-05
9.89853e-05
0.00010486
0.000201222
0.000121706
0.000118091
0.000159008
0.000272296
)
;
    }
    ceiling
    {
        type            compressible::alphatWallFunction;
        Prt             0.85;
        value           nonuniform List<scalar> 
43
(
0.000358201
0.000376655
0.000391546
0.000371029
0.000342935
0.000325123
0.000309344
0.000294917
0.000281609
0.000269608
0.000259135
0.000250016
0.000241751
0.000233727
0.000225322
0.000216029
0.00020565
0.000194512
0.000183488
0.000173624
0.000165674
0.000159867
0.000156015
0.000153767
0.000152818
0.000152988
0.000154209
0.000156485
0.000159857
0.000164382
0.00017013
0.0001772
0.000185735
0.000195898
0.000207751
0.000222003
0.000228255
0.000211824
0.000196321
0.000212127
0.000480438
0.000478888
0.000484679
)
;
    }
    sWall
    {
        type            compressible::alphatWallFunction;
        Prt             0.85;
        value           uniform 0.000356988;
    }
    nWall
    {
        type            compressible::alphatWallFunction;
        Prt             0.85;
        value           nonuniform List<scalar> 6(0.000152807 0.000160506 0.000181413 0.000218908 0.000227163 0.000211754);
    }
    sideWalls
    {
        type            empty;
    }
    glass1
    {
        type            compressible::alphatWallFunction;
        Prt             0.85;
        value           nonuniform List<scalar> 9(0.00025229 0.0003153 0.000365117 0.000411416 0.000456182 0.000489289 0.000490897 0.000480301 0.000470897);
    }
    glass2
    {
        type            compressible::alphatWallFunction;
        Prt             0.85;
        value           nonuniform List<scalar> 2(0.000266032 0.000249878);
    }
    sun
    {
        type            compressible::alphatWallFunction;
        Prt             0.85;
        value           nonuniform List<scalar> 
14
(
0.000259274
0.000289204
0.000302326
0.000319738
0.000337727
0.000353626
0.000362488
0.000363021
0.000355193
0.000337568
0.000312747
0.000288244
0.000259306
0.000231666
)
;
    }
    heatsource1
    {
        type            compressible::alphatWallFunction;
        Prt             0.85;
        value           nonuniform List<scalar> 3(0.000115738 0.000137225 0.000153284);
    }
    heatsource2
    {
        type            compressible::alphatWallFunction;
        Prt             0.85;
        value           nonuniform List<scalar> 4(0.000245855 0.000200078 0.000200076 0.000241733);
    }
    Table_master
    {
        type            compressible::alphatWallFunction;
        Prt             0.85;
        value           nonuniform List<scalar> 9(0.000225583 0.000196768 0.000173228 0.000154162 0.000138647 0.000125913 0.000115377 0.000106846 0.000100522);
    }
    Table_slave
    {
        type            compressible::alphatWallFunction;
        Prt             0.85;
        value           nonuniform List<scalar> 9(0.000251868 0.00022698 0.000207605 0.000191831 0.000177966 0.000165006 0.000152269 0.000139168 0.000124677);
    }
    inlet
    {
        type            fixedValue;
        value           uniform 1.94e-05;
    }
    outlet
    {
        type            zeroGradient;
    }
}


// ************************************************************************* //
