/*--------------------------------*- C++ -*----------------------------------*\
  =========                 |
  \\      /  F ield         | OpenFOAM: The Open Source CFD Toolbox
   \\    /   O peration     | Website:  https://openfoam.org
    \\  /    A nd           | Version:  6
     \\/     M anipulation  |
\*---------------------------------------------------------------------------*/
FoamFile
{
    version     2.0;
    format      ascii;
    class       volScalarField;
    location    "200";
    object      nut;
}
// * * * * * * * * * * * * * * * * * * * * * * * * * * * * * * * * * * * * * //

dimensions      [0 2 -1 0 0 0 0];

internalField   nonuniform List<scalar> 
459
(
0.00158879
0.00178254
0.00186875
0.00198393
0.00210368
0.0022101
0.00226962
0.00227316
0.00222052
0.00210248
0.00193764
0.00177626
0.00158764
0.00140975
0.00121666
0.00073061
0.000860751
0.0010118
0.00109651
0.00110271
0.00107357
0.00100672
0.000935597
0.000871422
0.000815358
0.000766492
0.000723753
0.000685994
0.000652386
0.000621733
0.000592424
0.000562142
0.000531314
0.000480183
0.00201015
0.0057405
0.00609264
0.00719381
0.00816345
0.00884674
0.00937303
0.00971966
0.00985456
0.00969867
0.00928374
0.00868404
0.00787728
0.00638945
0.00430142
0.00149886
0.00120742
0.000709205
0.00188953
0.00302629
0.00393998
0.00445877
0.00434905
0.00302125
0.00248436
0.00214039
0.00189357
0.00170707
0.00156118
0.00144527
0.00133889
0.00122434
0.00111265
0.00101233
0.00105604
0.000550932
0.00234999
0.00808789
0.00796236
0.00885285
0.00940032
0.00981783
0.010282
0.0107837
0.0112096
0.0113721
0.0112808
0.0109587
0.0103914
0.00933593
0.00761314
0.00486612
0.00147245
0.000955998
0.0020322
0.00337813
0.00473489
0.00562852
0.00529709
0.00137201
0.00118928
0.0010423
0.000924961
0.000830728
0.000754309
0.000691766
0.000641623
0.000604763
0.00068165
0.000814983
0.00119947
0.000597663
0.00267048
0.0100231
0.00897294
0.00942167
0.00936997
0.00941335
0.00977013
0.0103805
0.0109877
0.0114196
0.011594
0.0115129
0.0111989
0.0105755
0.00947034
0.0075408
0.00399886
0.00167283
0.00212473
0.00330572
0.00493488
0.00643621
0.00732931
0.00668586
0.00154207
0.00138205
0.00125883
0.0011595
0.00107296
0.00099276
0.000914632
0.000835047
0.000747991
0.000694898
0.000776171
0.00135992
0.00063202
0.00298421
0.0120164
0.0107053
0.0103292
0.00939737
0.00906311
0.00932371
0.00999377
0.0107592
0.0113574
0.0116629
0.011679
0.0114707
0.0110833
0.0104734
0.00947006
0.00780782
0.00695887
0.0075787
0.00846417
0.00931418
0.00987323
0.0100056
0.00947493
0.00749228
0.00641719
0.00569881
0.00502922
0.00437239
0.0037124
0.00304406
0.00237679
0.00173099
0.00119087
0.000971153
0.00129306
0.000740465
0.000695657
0.000824769
0.000922542
0.00321892
0.0131589
0.0126127
0.0106734
0.00923221
0.0087546
0.00911374
0.00997485
0.0109314
0.0116575
0.0120163
0.0120466
0.0118843
0.0116992
0.0115415
0.0113559
0.011082
0.0112494
0.0118872
0.0123191
0.0124514
0.0122699
0.0117992
0.011031
0.00988982
0.00882518
0.00783625
0.00690109
0.00599431
0.00509296
0.00418249
0.00327855
0.0024215
0.00169524
0.00131271
0.00128474
0.000953221
0.000861995
0.00125823
0.000969669
0.00323212
0.0105114
0.00997344
0.00869764
0.00800328
0.00819347
0.00914056
0.0104642
0.0116975
0.0125064
0.01283
0.0128306
0.0127916
0.0129043
0.0131545
0.0134301
0.0136878
0.0140566
0.0143715
0.0142816
0.0138541
0.0131677
0.0123015
0.0113021
0.0102012
0.00913113
0.00812946
0.00719367
0.00630164
0.00543147
0.00455178
0.00370192
0.0029082
0.00221045
0.0017862
0.00157108
0.00132566
0.00128048
0.00130661
0.00109937
0.00315854
0.00567523
0.005794
0.00594182
0.00660864
0.00809313
0.0100894
0.0119862
0.0133007
0.0138446
0.0138758
0.013951
0.0141757
0.0144108
0.0146749
0.0149013
0.0150621
0.015132
0.0149687
0.0144358
0.0135921
0.0125496
0.0114057
0.0102216
0.00905954
0.00800017
0.00704647
0.0061837
0.00540488
0.00470892
0.00409137
0.00354818
0.00306134
0.0026038
0.00230683
0.0022876
0.0024481
0.00303486
0.00424706
0.00165771
0.00308815
0.0030482
0.00522555
0.0056855
0.00837694
0.0115416
0.0137685
0.0148361
0.0151992
0.0149905
0.0146721
0.014596
0.0147649
0.0149152
0.0149824
0.0149578
0.0148137
0.014478
0.0138638
0.0129434
0.0117826
0.0104854
0.00914814
0.00785953
0.00668655
0.00564579
0.00472605
0.0039354
0.00330007
0.0028335
0.00252015
0.00232786
0.0022279
0.00220457
0.00224757
0.00233323
0.00238802
0.00234481
0.00219774
0.0015524
0.00127553
0.00605869
0.0121678
0.0146351
0.0150237
0.0147206
0.0142941
0.0139759
0.0138128
0.0137806
0.0137695
0.0136852
0.0135167
0.0132471
0.012824
0.0121782
0.0112672
0.0101098
0.00879131
0.00743896
0.00618365
0.00511935
0.00427386
0.00362491
0.00314029
0.00279372
0.00256021
0.00241482
0.00233696
0.0023132
0.00233595
0.00239874
0.00248829
0.00257887
0.00264699
0.00270461
0.00244321
0.00134
0.00310285
0.0104474
0.0118041
0.0119008
0.011581
0.0112117
0.0108962
0.0106307
0.010401
0.0101985
0.0100058
0.00980241
0.0095592
0.00922614
0.00874465
0.00807701
0.00724123
0.00632075
0.00543682
0.00469064
0.00412141
0.00371085
0.00341561
0.00319572
0.003025
0.00288924
0.00278246
0.00270442
0.00265845
0.00264875
0.00267766
0.0027426
0.00283222
0.00293403
0.0030681
0.00326482
0.0021857
0.00139291
0.00224725
0.0023717
0.00247282
0.00233736
0.00214928
0.0020306
0.0019258
0.00183041
0.00174289
0.00166436
0.00159617
0.00153707
0.00148371
0.00143207
0.00137816
0.00131876
0.0012527
0.00118219
0.00111283
0.00105114
0.0010017
0.000965742
0.000941949
0.000928075
0.000922192
0.000923175
0.000930617
0.000944564
0.000965295
0.000993213
0.00102883
0.00107284
0.00112626
0.00119026
0.00126542
0.00135651
0.00139676
0.00129164
0.00119362
0.0012949
)
;

boundaryField
{
    floor
    {
        type            nutkWallFunction;
        Cmu             0.09;
        kappa           0.41;
        E               9.8;
        value           nonuniform List<scalar> 
29
(
0.000145861
8.84753e-05
0.000104189
0.000122085
0.000131985
0.000132709
0.000129317
0.000121494
0.000113104
0.00010547
9.87472e-05
9.2843e-05
8.76425e-05
8.30172e-05
7.88747e-05
7.50738e-05
7.14181e-05
6.76177e-05
6.37225e-05
5.71992e-05
5.71991e-05
6.6201e-05
7.20676e-05
7.63451e-05
0.000145861
8.84753e-05
8.58594e-05
0.00011551
0.00019734
)
;
    }
    ceiling
    {
        type            nutkWallFunction;
        Cmu             0.09;
        kappa           0.41;
        E               9.8;
        value           nonuniform List<scalar> 
43
(
0.000260056
0.000273394
0.00028418
0.000269749
0.000249538
0.000236687
0.000225272
0.000214821
0.000205174
0.000196471
0.000188875
0.000182262
0.000176266
0.000170442
0.000164338
0.000157581
0.000150028
0.000141917
0.000133883
0.000126692
0.000120893
0.000116655
0.000113842
0.000112198
0.000111501
0.000111618
0.000112502
0.000114156
0.000116608
0.0001199
0.000124084
0.000129231
0.000135446
0.000142848
0.000151484
0.000161873
0.000166442
0.000154486
0.000143242
0.000154871
0.00034884
0.000344498
0.000350326
)
;
    }
    sWall
    {
        type            nutkWallFunction;
        Cmu             0.09;
        kappa           0.41;
        E               9.8;
        value           uniform 0.000260123;
    }
    nWall
    {
        type            nutkWallFunction;
        Cmu             0.09;
        kappa           0.41;
        E               9.8;
        value           nonuniform List<scalar> 6(0.000111557 0.000117134 0.000132325 0.000160015 0.00016603 0.000154883);
    }
    sideWalls
    {
        type            empty;
    }
    glass1
    {
        type            nutkWallFunction;
        Cmu             0.09;
        kappa           0.41;
        E               9.8;
        value           nonuniform List<scalar> 9(0.000188295 0.000234816 0.000271559 0.000305694 0.000338694 0.000363145 0.000364523 0.000356872 0.00034944);
    }
    glass2
    {
        type            nutkWallFunction;
        Cmu             0.09;
        kappa           0.41;
        E               9.8;
        value           nonuniform List<scalar> 2(0.000195823 0.000184072);
    }
    sun
    {
        type            nutkWallFunction;
        Cmu             0.09;
        kappa           0.41;
        E               9.8;
        value           nonuniform List<scalar> 
14
(
0.00018799
0.000209464
0.000218939
0.000231526
0.000244529
0.000256019
0.000262419
0.000262799
0.000257142
0.000244411
0.000226482
0.000208775
0.000187855
0.000167871
)
;
    }
    heatsource1
    {
        type            nutkWallFunction;
        Cmu             0.09;
        kappa           0.41;
        E               9.8;
        value           nonuniform List<scalar> 3(8.41963e-05 9.98724e-05 0.00011155);
    }
    heatsource2
    {
        type            nutkWallFunction;
        Cmu             0.09;
        kappa           0.41;
        E               9.8;
        value           nonuniform List<scalar> 4(0.000177899 0.00014479 0.00014479 0.000174934);
    }
    Table_master
    {
        type            nutkWallFunction;
        Cmu             0.09;
        kappa           0.41;
        E               9.8;
        value           nonuniform List<scalar> 9(0.00016361 0.000142723 0.000125659 0.000111839 0.000100594 9.13643e-05 8.3728e-05 7.75461e-05 7.29646e-05);
    }
    Table_slave
    {
        type            nutkWallFunction;
        Cmu             0.09;
        kappa           0.41;
        E               9.8;
        value           nonuniform List<scalar> 9(0.00018278 0.000164756 0.00015072 0.000139293 0.000129247 0.000119853 0.000110617 0.000101115 9.05976e-05);
    }
    inlet
    {
        type            calculated;
        value           uniform 0.000100623;
    }
    outlet
    {
        type            calculated;
        value           nonuniform List<scalar> 2(0.00224725 0.0023717);
    }
}


// ************************************************************************* //
