/*--------------------------------*- C++ -*----------------------------------*\
  =========                 |
  \\      /  F ield         | OpenFOAM: The Open Source CFD Toolbox
   \\    /   O peration     | Website:  https://openfoam.org
    \\  /    A nd           | Version:  6
     \\/     M anipulation  |
\*---------------------------------------------------------------------------*/
FoamFile
{
    version     2.0;
    format      ascii;
    class       volScalarField;
    location    "2600";
    object      nut;
}
// * * * * * * * * * * * * * * * * * * * * * * * * * * * * * * * * * * * * * //

dimensions      [0 2 -1 0 0 0 0];

internalField   nonuniform List<scalar> 
459
(
0.00113863
0.0012472
0.0012715
0.00133435
0.00139327
0.00144917
0.00150497
0.00155597
0.00159001
0.00160128
0.00158479
0.00153749
0.00145843
0.00135223
0.00123212
0.000511115
0.000616309
0.000692954
0.000691015
0.000667325
0.000635718
0.000595511
0.000555649
0.000519569
0.000487627
0.000459418
0.000434421
0.000412216
0.000392339
0.000374082
0.000356566
0.000338602
0.000328041
0.000301242
0.00154953
0.00388616
0.00376068
0.00439124
0.00501269
0.00562405
0.00614063
0.00654704
0.00690447
0.00718442
0.00735091
0.0073668
0.00717549
0.00663114
0.00513898
0.0012659
0.000735731
0.000542781
0.00113857
0.00158734
0.00191604
0.00209257
0.00208379
0.00165834
0.00142517
0.00125982
0.00113355
0.0010335
0.000952199
0.000882659
0.00081779
0.000754583
0.000698059
0.000647401
0.000773667
0.000401796
0.00188848
0.00531216
0.00469711
0.00587904
0.00647952
0.00692672
0.00727254
0.00756541
0.00787384
0.00818351
0.00845444
0.00864057
0.00868854
0.0085073
0.00783925
0.00593405
0.00129759
0.00104891
0.00153148
0.0019812
0.00239361
0.00267622
0.00260322
0.000848116
0.000747165
0.000666113
0.000600821
0.000547737
0.000504117
0.000467987
0.000438093
0.000413912
0.00044648
0.000515867
0.000879069
0.000470836
0.00221119
0.00675269
0.0047493
0.00622943
0.00674878
0.00694321
0.00708587
0.00726598
0.00753268
0.00786816
0.00821937
0.0085297
0.00873748
0.00876582
0.00855797
0.00781234
0.00532091
0.00152952
0.00189874
0.00246094
0.00301882
0.00346625
0.00373567
0.00348935
0.000954688
0.000866641
0.000803271
0.000754515
0.000712761
0.000675087
0.000638866
0.000601056
0.000557605
0.000523797
0.000542023
0.00103958
0.000521434
0.00253849
0.00858068
0.00525402
0.0060531
0.00670406
0.00677123
0.00674983
0.00688341
0.00712749
0.00748443
0.00788392
0.00824985
0.008492
0.00855642
0.00843728
0.00810054
0.0073512
0.00610012
0.00566409
0.00552631
0.00548199
0.00544581
0.00536799
0.00512802
0.00428421
0.00387413
0.00363101
0.00344159
0.00324551
0.002967
0.0026084
0.00218667
0.00172897
0.0012794
0.000948303
0.00100636
0.00068518
0.000640525
0.000764382
0.000855882
0.00288406
0.0105636
0.00718525
0.00617237
0.00664689
0.00675728
0.00670992
0.00679435
0.00698569
0.00731544
0.0077419
0.00815096
0.00841417
0.00845337
0.00827924
0.00797848
0.00764654
0.007336
0.00716165
0.00701366
0.00682858
0.0066089
0.00635986
0.00605774
0.00564048
0.00527552
0.00495939
0.0046643
0.00437177
0.00405691
0.00367162
0.00320267
0.00265378
0.00206089
0.00154963
0.0011494
0.000917766
0.000813943
0.00117499
0.000897584
0.00319081
0.0119098
0.00988537
0.00793305
0.00760226
0.00732232
0.00703051
0.00691425
0.00703774
0.00739062
0.00787658
0.00833319
0.00859746
0.00857999
0.0083138
0.00796018
0.00772871
0.00769225
0.00770064
0.00758229
0.00731694
0.00695835
0.00654599
0.00610036
0.00564441
0.00523523
0.00487335
0.00454666
0.00425265
0.00399586
0.00377521
0.00346155
0.00303252
0.00251914
0.00204764
0.0016155
0.00134156
0.00127208
0.00129568
0.00102299
0.00324359
0.0103885
0.00938657
0.00867489
0.00799242
0.00731436
0.00689976
0.00685393
0.00716165
0.0077184
0.00834656
0.00883546
0.00902048
0.00885109
0.00842624
0.0080004
0.00782826
0.00787083
0.00778836
0.00746874
0.00698286
0.00640954
0.00581439
0.00525733
0.0047811
0.00439471
0.00407987
0.00382394
0.00362606
0.00349058
0.00342057
0.00338238
0.003175
0.00284915
0.00258299
0.0024786
0.00262472
0.00306727
0.00393835
0.00154881
0.00315184
0.00371574
0.00409152
0.00418434
0.00440137
0.00488243
0.00564156
0.00662392
0.00769867
0.00868655
0.00939818
0.00967753
0.00948766
0.00894465
0.00831953
0.00794058
0.00771747
0.00747715
0.00706599
0.00647234
0.0057803
0.00508799
0.00447692
0.00398798
0.00361617
0.00333195
0.00310705
0.00292419
0.00277254
0.00264355
0.00253001
0.0024315
0.00235836
0.0023134
0.00231235
0.00234398
0.00234426
0.00225653
0.00209773
0.00143793
0.00144126
0.00367567
0.00668515
0.00865848
0.00996838
0.0107755
0.0111184
0.0110636
0.0106873
0.0100725
0.00920119
0.00831401
0.00763681
0.00717638
0.0067275
0.00617174
0.00551793
0.00483775
0.00420163
0.00366263
0.00325075
0.00295289
0.00273779
0.00257858
0.00245859
0.00236896
0.00230574
0.00226835
0.0022592
0.00227677
0.00231165
0.00236236
0.00242381
0.00247741
0.00249883
0.00248973
0.00220712
0.00118825
0.00218738
0.00679404
0.00937871
0.0100679
0.0102848
0.0101432
0.00967176
0.00898973
0.00821275
0.0074489
0.00672824
0.00612531
0.00563287
0.0051504
0.00462945
0.00410406
0.00361865
0.00320363
0.00286965
0.00261155
0.00241495
0.00227341
0.00217539
0.00211314
0.00208204
0.00207811
0.00209609
0.00213251
0.00219299
0.00227317
0.00236975
0.00247688
0.00258195
0.00267094
0.00274379
0.00275547
0.00190414
0.00122682
0.00195987
0.00207902
0.00216486
0.00233559
0.00224454
0.00215943
0.00208908
0.00198667
0.00184821
0.00168195
0.00149678
0.00130886
0.00114084
0.00100627
0.000905388
0.000831313
0.000776653
0.000736172
0.000706938
0.000687416
0.00067652
0.000673345
0.000676746
0.000685194
0.000698276
0.000715836
0.000737929
0.000764869
0.000797344
0.000836121
0.000880801
0.000931865
0.000989665
0.00105458
0.00112632
0.00120881
0.00123129
0.00112168
0.00104538
0.00118595
)
;

boundaryField
{
    floor
    {
        type            nutkWallFunction;
        Cmu             0.09;
        kappa           0.41;
        E               9.8;
        value           nonuniform List<scalar> 
29
(
0.000147689
6.11362e-05
7.43849e-05
8.38629e-05
8.36247e-05
8.07083e-05
7.67978e-05
7.17891e-05
6.67824e-05
6.22127e-05
5.81343e-05
5.45047e-05
5.1265e-05
4.83675e-05
4.57568e-05
4.3344e-05
4.10149e-05
3.86107e-05
3.71896e-05
3.35558e-05
3.35557e-05
4.70003e-05
5.59763e-05
6.2449e-05
0.000147689
6.11362e-05
6.51567e-05
0.000126456
0.000181432
)
;
    }
    ceiling
    {
        type            nutkWallFunction;
        Cmu             0.09;
        kappa           0.41;
        E               9.8;
        value           nonuniform List<scalar> 
43
(
0.000228832
0.000241779
0.000251058
0.000269544
0.000259825
0.000250671
0.000243069
0.000231944
0.000216797
0.000198442
0.000177761
0.00015648
0.000137161
0.000121457
0.000109526
0.000100667
9.40709e-05
8.91508e-05
8.55776e-05
8.31819e-05
8.18411e-05
8.145e-05
8.1869e-05
8.29086e-05
8.45157e-05
8.6667e-05
8.9365e-05
9.26419e-05
9.6574e-05
0.000101245
0.000106595
0.000112671
0.000119503
0.000127121
0.00013548
0.000145014
0.000147601
0.00013494
0.000126046
0.000142383
0.000355891
0.000413983
0.000253279
)
;
    }
    sWall
    {
        type            nutkWallFunction;
        Cmu             0.09;
        kappa           0.41;
        E               9.8;
        value           uniform 0.000228897;
    }
    nWall
    {
        type            nutkWallFunction;
        Cmu             0.09;
        kappa           0.41;
        E               9.8;
        value           nonuniform List<scalar> 6(0.000103617 0.000108599 0.000123426 0.000142657 0.000147099 0.000142393);
    }
    sideWalls
    {
        type            empty;
    }
    glass1
    {
        type            nutkWallFunction;
        Cmu             0.09;
        kappa           0.41;
        E               9.8;
        value           nonuniform List<scalar> 9(0.000137035 0.000183931 0.000221561 0.000256705 0.000291794 0.000328327 0.000360377 0.00036587 0.000356355);
    }
    glass2
    {
        type            nutkWallFunction;
        Cmu             0.09;
        kappa           0.41;
        E               9.8;
        value           nonuniform List<scalar> 2(0.000183692 0.000171213);
    }
    sun
    {
        type            nutkWallFunction;
        Cmu             0.09;
        kappa           0.41;
        E               9.8;
        value           nonuniform List<scalar> 
14
(
0.000136907
0.000149422
0.000152206
0.000159381
0.000166074
0.000172394
0.000178677
0.000184396
0.000188202
0.00018946
0.000187618
0.000182324
0.000173437
0.000161414
)
;
    }
    heatsource1
    {
        type            nutkWallFunction;
        Cmu             0.09;
        kappa           0.41;
        E               9.8;
        value           nonuniform List<scalar> 3(7.73956e-05 9.25829e-05 0.000103614);
    }
    heatsource2
    {
        type            nutkWallFunction;
        Cmu             0.09;
        kappa           0.41;
        E               9.8;
        value           nonuniform List<scalar> 4(0.000151558 8.90982e-05 8.90982e-05 0.000155182);
    }
    Table_master
    {
        type            nutkWallFunction;
        Cmu             0.09;
        kappa           0.41;
        E               9.8;
        value           nonuniform List<scalar> 9(0.000102683 9.04907e-05 8.05609e-05 7.24565e-05 6.57887e-05 6.02505e-05 5.56183e-05 5.17518e-05 4.86001e-05);
    }
    Table_slave
    {
        type            nutkWallFunction;
        Cmu             0.09;
        kappa           0.41;
        E               9.8;
        value           nonuniform List<scalar> 9(0.000115371 0.000104901 9.72891e-05 9.13846e-05 8.62921e-05 8.16666e-05 7.71904e-05 7.24851e-05 6.70329e-05);
    }
    inlet
    {
        type            calculated;
        value           uniform 0.000100623;
    }
    outlet
    {
        type            calculated;
        value           nonuniform List<scalar> 2(0.00195987 0.00207902);
    }
}


// ************************************************************************* //
