/*--------------------------------*- C++ -*----------------------------------*\
  =========                 |
  \\      /  F ield         | OpenFOAM: The Open Source CFD Toolbox
   \\    /   O peration     | Website:  https://openfoam.org
    \\  /    A nd           | Version:  6
     \\/     M anipulation  |
\*---------------------------------------------------------------------------*/
FoamFile
{
    version     2.0;
    format      ascii;
    class       volScalarField;
    location    "1100";
    object      epsilon;
}
// * * * * * * * * * * * * * * * * * * * * * * * * * * * * * * * * * * * * * //

dimensions      [0 2 -3 0 0 0 0];

internalField   nonuniform List<scalar> 
459
(
0.000563747
0.000746755
0.000800722
0.000928493
0.00106081
0.0011996
0.00135375
0.00149119
0.00157894
0.00159293
0.00151981
0.00135916
0.00112197
0.000830857
0.000547814
5.43062e-05
9.27956e-05
0.000137357
0.000145899
0.000135414
0.000119467
9.8421e-05
7.96049e-05
6.47548e-05
5.32896e-05
4.43924e-05
3.74102e-05
3.18501e-05
2.73849e-05
2.36794e-05
2.04578e-05
1.74623e-05
1.54019e-05
1.1611e-05
0.00137583
0.00190281
0.000705194
0.000692301
0.000736268
0.000808533
0.000913703
0.00102996
0.00112104
0.0011562
0.00112198
0.0010217
0.000872404
0.000696434
0.000557552
0.000696946
0.000210405
5.91298e-05
0.000139055
0.000160138
0.00015303
0.000135342
0.000116783
0.000108643
8.76853e-05
6.88592e-05
5.40489e-05
4.27433e-05
3.41551e-05
2.7592e-05
2.26002e-05
1.88896e-05
1.65783e-05
1.55237e-05
3.44605e-05
2.43775e-05
0.00244475
0.00446091
0.000860318
0.000669047
0.000720598
0.000836244
0.000999225
0.00116862
0.00129095
0.00133464
0.00129731
0.0011879
0.0010307
0.000847045
0.000700145
0.000635164
0.000824053
0.000365837
0.000300429
0.000247877
0.000204211
0.000168075
0.000146417
0.000278793
0.000188939
0.00013239
9.60133e-05
7.19073e-05
5.54443e-05
4.3899e-05
3.5697e-05
2.99256e-05
2.25222e-05
1.87208e-05
6.26905e-05
3.72972e-05
0.00386983
0.00905564
0.0013372
0.000699676
0.000740881
0.00091802
0.00118307
0.00141388
0.00154824
0.00157639
0.00151596
0.00137534
0.00118258
0.000980767
0.000810344
0.000707697
0.000703048
0.00130866
0.00076982
0.000484853
0.000337544
0.000251353
0.000196184
0.000170693
0.000399654
0.0002982
0.000235848
0.000193423
0.000161268
0.000135961
0.000114231
9.42586e-05
7.45381e-05
4.32071e-05
2.80565e-05
0.000103689
4.99305e-05
0.00579577
0.0159492
0.00260792
0.000887634
0.000852717
0.00115064
0.00158741
0.00183865
0.00193226
0.00191054
0.0018004
0.00161117
0.00136449
0.00109844
0.0008569
0.000671636
0.000557411
0.000521484
0.000441029
0.000361995
0.000295112
0.000239782
0.000194867
0.000162488
0.000155021
0.000141834
0.000128848
0.000116168
0.000103516
9.1218e-05
7.93445e-05
6.81775e-05
5.78456e-05
4.47418e-05
3.36163e-05
7.56594e-05
5.45482e-05
8.84652e-05
0.000152362
0.000214042
0.00844157
0.0235757
0.00583019
0.00181892
0.00151946
0.00211477
0.00246458
0.00255248
0.00250812
0.00239244
0.00220538
0.00193756
0.00160248
0.00124358
0.000917594
0.000667935
0.000509297
0.000427004
0.000374403
0.000325348
0.000275067
0.000227694
0.000187107
0.00015655
0.000138944
0.000129112
0.000121972
0.000114504
0.000105402
9.39577e-05
8.12025e-05
6.85634e-05
5.71201e-05
4.68807e-05
4.04973e-05
5.62406e-05
5.66951e-05
6.85361e-05
0.000284137
0.000246213
0.0113658
0.0280962
0.0118487
0.00576133
0.00471415
0.00443957
0.00405415
0.0036791
0.00336173
0.00307662
0.00276022
0.00236638
0.00190032
0.00141572
0.000987891
0.000675255
0.000487443
0.000392442
0.000338742
0.000292476
0.000245957
0.000203517
0.000169529
0.000146447
0.000134772
0.00013096
0.000130078
0.000129301
0.00012711
0.000121849
0.000110546
9.75053e-05
8.4658e-05
7.34013e-05
6.91762e-05
7.90608e-05
0.00010096
0.000167547
0.000392123
0.000370716
0.0119261
0.0291017
0.017053
0.0122874
0.00952081
0.00741499
0.00597069
0.00504384
0.00444491
0.00398078
0.00348871
0.00289487
0.00222293
0.00155515
0.000996509
0.000627961
0.000429422
0.000334938
0.000282704
0.000239238
0.000200263
0.000169083
0.000147755
0.000136432
0.000133839
0.000137394
0.000144655
0.000154648
0.000167268
0.000182296
0.000197818
0.000206397
0.000217204
0.000238778
0.00028462
0.000435512
0.000834555
0.001685
0.00503938
0.00138433
0.0109575
0.0178863
0.0143388
0.0110756
0.00877084
0.00737843
0.00658187
0.00611152
0.00572124
0.00519146
0.00439386
0.00339703
0.00236631
0.00143986
0.000757938
0.000455755
0.000319179
0.000251611
0.000209687
0.000177114
0.000151513
0.000134048
0.000124819
0.00012291
0.000126985
0.000135824
0.000148964
0.000167002
0.000191449
0.000224662
0.000269844
0.000332506
0.000421552
0.000558434
0.00076027
0.00103456
0.00134687
0.00161245
0.0018044
0.00108945
0.00343007
0.00625002
0.00833943
0.00895587
0.00899185
0.00848915
0.00735623
0.00573247
0.0038114
0.00231723
0.00135271
0.000768008
0.000447938
0.000294114
0.000218226
0.000176103
0.000148351
0.000128219
0.000114135
0.000105552
0.00010204
0.000102993
0.000107762
0.000115988
0.000127848
0.000144162
0.000166489
0.000197424
0.000241143
0.000302997
0.000390086
0.000511182
0.000669032
0.000845511
0.000987747
0.00102613
0.000912584
0.00056893
0.00370025
0.00896933
0.00868987
0.00708555
0.00595354
0.0048362
0.00369911
0.00261526
0.00167702
0.00101218
0.000605562
0.000376256
0.000253683
0.000189097
0.000152701
0.000129742
0.000113937
0.000103054
9.62343e-05
9.28851e-05
9.25179e-05
9.48773e-05
0.000100064
0.000108366
0.000120387
0.000137128
0.00016011
0.000191493
0.000234282
0.000292937
0.000373449
0.000481884
0.000618884
0.00077432
0.000890912
0.000998476
0.000782214
0.00059026
0.00267236
0.00319782
0.00361644
0.00455234
0.00395068
0.00349246
0.0031006
0.00259268
0.00201765
0.0014617
0.000990256
0.000649079
0.000433365
0.000304818
0.000227332
0.000178184
0.000145433
0.000123228
0.000108764
0.000100439
9.6993e-05
9.73942e-05
0.000100947
0.000107236
0.000115882
0.000127057
0.000141169
0.000158913
0.000181434
0.000209783
0.000245327
0.000289996
0.0003464
0.000417976
0.000508526
0.00064378
0.000690763
0.000642296
0.000521379
0.000410455
)
;

boundaryField
{
    floor
    {
        Cmu             0.09;
        kappa           0.41;
        E               9.8;
        type            epsilonWallFunction;
        value           nonuniform List<scalar> 
29
(
0.000547814
5.43062e-05
9.27956e-05
0.000137357
0.000145899
0.000135414
0.000119467
9.8421e-05
7.96049e-05
6.47548e-05
5.32896e-05
4.43924e-05
3.74102e-05
3.18501e-05
2.73849e-05
2.36794e-05
2.04578e-05
1.74623e-05
1.54019e-05
1.1611e-05
1.1611e-05
2.43775e-05
3.72972e-05
4.99305e-05
0.000547814
5.43062e-05
5.91298e-05
0.000365837
0.00130866
)
;
    }
    ceiling
    {
        Cmu             0.09;
        kappa           0.41;
        E               9.8;
        type            epsilonWallFunction;
        value           nonuniform List<scalar> 
43
(
0.00267236
0.00319782
0.00361644
0.00455234
0.00395068
0.00349246
0.0031006
0.00259268
0.00201765
0.0014617
0.000990256
0.000649079
0.000433365
0.000304818
0.000227332
0.000178184
0.000145433
0.000123228
0.000108764
0.000100439
9.6993e-05
9.73942e-05
0.000100947
0.000107236
0.000115882
0.000127057
0.000141169
0.000158913
0.000181434
0.000209783
0.000245327
0.000289996
0.0003464
0.000417976
0.000508526
0.00064378
0.000690763
0.000642296
0.000521379
0.000410455
0.0109575
0.0178863
0.00370025
)
;
    }
    sWall
    {
        Cmu             0.09;
        kappa           0.41;
        E               9.8;
        type            epsilonWallFunction;
        value           uniform 0.00267236;
    }
    nWall
    {
        Cmu             0.09;
        kappa           0.41;
        E               9.8;
        type            epsilonWallFunction;
        value           nonuniform List<scalar> 6(0.000214042 0.000246213 0.000370716 0.00056893 0.00059026 0.000410455);
    }
    sideWalls
    {
        type            empty;
    }
    glass1
    {
        Cmu             0.09;
        kappa           0.41;
        E               9.8;
        type            epsilonWallFunction;
        value           nonuniform List<scalar> 9(0.000563747 0.00137583 0.00244475 0.00386983 0.00579577 0.00844157 0.0113658 0.0119261 0.0109575);
    }
    glass2
    {
        Cmu             0.09;
        kappa           0.41;
        E               9.8;
        type            epsilonWallFunction;
        value           nonuniform List<scalar> 2(0.00138433 0.00108945);
    }
    sun
    {
        Cmu             0.09;
        kappa           0.41;
        E               9.8;
        type            epsilonWallFunction;
        value           nonuniform List<scalar> 
14
(
0.000563747
0.000746755
0.000800722
0.000928493
0.00106081
0.0011996
0.00135375
0.00149119
0.00157894
0.00159293
0.00151981
0.00135916
0.00112197
0.000830857
)
;
    }
    heatsource1
    {
        Cmu             0.09;
        kappa           0.41;
        E               9.8;
        type            epsilonWallFunction;
        value           nonuniform List<scalar> 3(8.84652e-05 0.000152362 0.000214042);
    }
    heatsource2
    {
        Cmu             0.09;
        kappa           0.41;
        E               9.8;
        type            epsilonWallFunction;
        value           nonuniform List<scalar> 4(0.000696946 0.000210405 0.000210405 0.000824053);
    }
    Table_master
    {
        Cmu             0.09;
        kappa           0.41;
        E               9.8;
        type            epsilonWallFunction;
        value           nonuniform List<scalar> 9(0.000278793 0.000188939 0.00013239 9.60133e-05 7.19073e-05 5.54443e-05 4.3899e-05 3.5697e-05 2.99256e-05);
    }
    Table_slave
    {
        Cmu             0.09;
        kappa           0.41;
        E               9.8;
        type            epsilonWallFunction;
        value           nonuniform List<scalar> 9(0.000399654 0.0002982 0.000235848 0.000193423 0.000161268 0.000135961 0.000114231 9.42586e-05 7.45381e-05);
    }
    inlet
    {
        type            turbulentMixingLengthDissipationRateInlet;
        mixingLength    0.01;
        phi             phi;
        k               k;
        value           uniform 0.000101881;
    }
    outlet
    {
        type            zeroGradient;
    }
}


// ************************************************************************* //
