/*--------------------------------*- C++ -*----------------------------------*\
  =========                 |
  \\      /  F ield         | OpenFOAM: The Open Source CFD Toolbox
   \\    /   O peration     | Website:  https://openfoam.org
    \\  /    A nd           | Version:  6
     \\/     M anipulation  |
\*---------------------------------------------------------------------------*/
FoamFile
{
    version     2.0;
    format      ascii;
    class       volScalarField;
    location    "1100";
    object      nut;
}
// * * * * * * * * * * * * * * * * * * * * * * * * * * * * * * * * * * * * * //

dimensions      [0 2 -1 0 0 0 0];

internalField   nonuniform List<scalar> 
459
(
0.00116791
0.00128265
0.00131283
0.00137924
0.00144187
0.0015022
0.00156397
0.0016152
0.00164628
0.00165112
0.00162546
0.00156604
0.00146906
0.00132907
0.00115675
0.000535383
0.000640063
0.000729455
0.000744276
0.000726004
0.000696308
0.000652752
0.00060818
0.000567731
0.000532026
0.000500596
0.00047284
0.000448148
0.000426142
0.000405983
0.000386667
0.000366791
0.000351757
0.000320141
0.00157242
0.00398537
0.00388288
0.00453644
0.00519031
0.00581958
0.00631269
0.00672925
0.00708852
0.00735913
0.00751303
0.00752314
0.00734901
0.0068921
0.00567004
0.00125346
0.000840889
0.000550784
0.00122915
0.00176601
0.00217363
0.0024084
0.00240131
0.00184617
0.00156612
0.00137232
0.00122667
0.00111279
0.00102128
0.000945873
0.000875037
0.000804779
0.000741103
0.000686197
0.000797891
0.000409933
0.00190455
0.00543471
0.00486018
0.00597764
0.00655498
0.00698932
0.00732091
0.00763729
0.00797242
0.00830161
0.00858852
0.00879159
0.00885091
0.00867398
0.00800774
0.00600266
0.00132545
0.00101112
0.00156633
0.00212775
0.00266528
0.00304456
0.00296905
0.000923589
0.000811256
0.000720558
0.000647381
0.000587905
0.000539098
0.000498731
0.000465506
0.000438931
0.000474859
0.000550998
0.000906137
0.000472362
0.00221961
0.00685033
0.00492681
0.00629229
0.00672248
0.00689808
0.00704896
0.00727803
0.00759403
0.00796466
0.00834498
0.00867709
0.00887658
0.00890055
0.00869329
0.00787088
0.00487291
0.00154639
0.00190916
0.00252748
0.00321112
0.00380233
0.00417623
0.00391577
0.00104139
0.000944541
0.000873498
0.000817626
0.000769545
0.000726979
0.000685981
0.000643415
0.00059499
0.000554494
0.000570861
0.00104926
0.000520601
0.00253951
0.00864915
0.00541993
0.00616523
0.00665341
0.00668831
0.0067157
0.00690123
0.00720651
0.00760308
0.00802947
0.00839288
0.00860985
0.00865191
0.00853853
0.00822709
0.00748189
0.00636825
0.00602042
0.0059837
0.00603958
0.00607257
0.00601632
0.00573977
0.00476086
0.00426627
0.00396568
0.0037322
0.00349046
0.00316492
0.00276675
0.00230845
0.00181443
0.00133127
0.000983979
0.00104256
0.000677489
0.000629949
0.000755104
0.000845696
0.00287864
0.0106205
0.00735001
0.00638477
0.00674772
0.00672343
0.00673256
0.00682962
0.00707124
0.00746724
0.00793102
0.00832565
0.00853236
0.00851435
0.00833812
0.00812508
0.00795556
0.00783918
0.00782229
0.00778181
0.00765132
0.00743422
0.00714739
0.00678401
0.00629243
0.00586526
0.00550129
0.00516532
0.0048287
0.0044437
0.00398253
0.00343652
0.00281185
0.00215208
0.00159711
0.00120838
0.000919744
0.000802006
0.00115676
0.000886106
0.00317867
0.0119529
0.0100526
0.00817992
0.00773746
0.00730967
0.0069917
0.00692762
0.00714958
0.00759932
0.00812953
0.00855387
0.00872915
0.0086265
0.00836519
0.00817119
0.00822413
0.00844959
0.00859789
0.00852879
0.00825889
0.00786259
0.00739855
0.00689888
0.00638711
0.00592472
0.00551517
0.00514297
0.00480124
0.00448951
0.00418405
0.00377443
0.00325538
0.00266374
0.00212597
0.00166019
0.00133633
0.00125851
0.00130472
0.00101562
0.00323008
0.0103392
0.00940325
0.00853682
0.00773103
0.007082
0.00678947
0.00690771
0.00737688
0.00804308
0.00868593
0.00909112
0.00914187
0.00887432
0.00851097
0.00836744
0.00855599
0.00878415
0.00873731
0.00842278
0.00791976
0.0073101
0.00666099
0.00603281
0.00547781
0.00501855
0.00463908
0.00432288
0.00406725
0.00387801
0.00375713
0.00364047
0.00333578
0.00294414
0.00261762
0.00246613
0.00259539
0.0031163
0.00392496
0.00157566
0.00314014
0.00369731
0.00403757
0.0041487
0.00443281
0.00503791
0.00594594
0.00706083
0.00821131
0.0091806
0.00975974
0.0098334
0.00946595
0.00889322
0.00857502
0.00847266
0.00843918
0.0082734
0.00788698
0.00730536
0.00659235
0.00583841
0.00513194
0.0045377
0.00407358
0.0037161
0.00343095
0.00319407
0.0029907
0.00280999
0.00264318
0.00250093
0.0023898
0.00231698
0.00229995
0.0023257
0.00232421
0.00223237
0.00207902
0.00145474
0.00136321
0.00375843
0.0070216
0.00908929
0.0103997
0.0111457
0.0113795
0.011179
0.0106589
0.00984067
0.00892882
0.00821344
0.00783028
0.00756972
0.0072225
0.00672105
0.00607919
0.00535656
0.00463553
0.00398951
0.00347138
0.00309242
0.00282479
0.00263274
0.00249066
0.00238444
0.00230741
0.00225765
0.00223915
0.00224273
0.00226098
0.00229131
0.00232295
0.00232549
0.00225284
0.00208795
0.00184392
0.00117148
0.00218671
0.00731075
0.00972224
0.0103362
0.0104287
0.0101419
0.00953703
0.00875988
0.00795016
0.0071784
0.00653306
0.00606544
0.00569007
0.00527052
0.00477065
0.00421565
0.00365309
0.00314156
0.00272703
0.00242366
0.002216
0.00207782
0.00199605
0.00195567
0.00194667
0.00196204
0.00199512
0.00204749
0.0021167
0.00220016
0.00229545
0.0023962
0.00248658
0.00254961
0.00253852
0.00254533
0.00233668
0.00118594
0.00196191
0.00208288
0.00217007
0.0023431
0.00223496
0.00214497
0.00206154
0.0019422
0.00178645
0.00160446
0.00140916
0.00122409
0.00106988
0.000951481
0.000862866
0.000795576
0.000743499
0.000703552
0.000674871
0.000657189
0.000649583
0.000650475
0.000658287
0.000671682
0.000689268
0.000710748
0.000736143
0.000765776
0.000800366
0.00084005
0.000885042
0.000935793
0.000992906
0.00105706
0.00112846
0.00122076
0.00124976
0.00121982
0.00113789
0.00105068
)
;

boundaryField
{
    floor
    {
        type            nutkWallFunction;
        Cmu             0.09;
        kappa           0.41;
        E               9.8;
        value           nonuniform List<scalar> 
29
(
0.000139004
6.42193e-05
7.73363e-05
8.83311e-05
9.01376e-05
8.79093e-05
8.42733e-05
7.89069e-05
7.33702e-05
6.8303e-05
6.37932e-05
5.97926e-05
5.62335e-05
5.30453e-05
5.01853e-05
4.75488e-05
4.50069e-05
4.23742e-05
4.03707e-05
3.61201e-05
3.61201e-05
4.80659e-05
5.61711e-05
6.23416e-05
0.000139004
6.42193e-05
6.61676e-05
0.000122026
0.000183323
)
;
    }
    ceiling
    {
        type            nutkWallFunction;
        Cmu             0.09;
        kappa           0.41;
        E               9.8;
        value           nonuniform List<scalar> 
43
(
0.000229062
0.000242205
0.000251629
0.000270361
0.000258804
0.000249118
0.00024009
0.000227097
0.000210006
0.000189823
0.00016788
0.000146772
0.000128908
0.000114994
0.000104449
9.63582e-05
9.00412e-05
8.51602e-05
8.16356e-05
7.9454e-05
7.85135e-05
7.86242e-05
7.95904e-05
8.12438e-05
8.34085e-05
8.60434e-05
8.91465e-05
9.27514e-05
9.69384e-05
0.000101716
0.000107101
0.000113137
0.000119885
0.000127412
0.000135728
0.00014639
0.000149722
0.000146283
0.000136822
0.000126667
0.000354673
0.000412097
0.000253199
)
;
    }
    sWall
    {
        type            nutkWallFunction;
        Cmu             0.09;
        kappa           0.41;
        E               9.8;
        value           uniform 0.000229127;
    }
    nWall
    {
        type            nutkWallFunction;
        Cmu             0.09;
        kappa           0.41;
        E               9.8;
        value           nonuniform List<scalar> 6(0.000102395 0.00010723 0.00012256 0.000140721 0.000142391 0.000126674);
    }
    sideWalls
    {
        type            empty;
    }
    glass1
    {
        type            nutkWallFunction;
        Cmu             0.09;
        kappa           0.41;
        E               9.8;
        value           nonuniform List<scalar> 9(0.000140432 0.000186498 0.000223323 0.000257614 0.000291901 0.000327757 0.000359115 0.000364467 0.000355136);
    }
    glass2
    {
        type            nutkWallFunction;
        Cmu             0.09;
        kappa           0.41;
        E               9.8;
        value           nonuniform List<scalar> 2(0.000186699 0.000173112);
    }
    sun
    {
        type            nutkWallFunction;
        Cmu             0.09;
        kappa           0.41;
        E               9.8;
        value           nonuniform List<scalar> 
14
(
0.000140295
0.000153481
0.000156928
0.000164482
0.000171569
0.000178364
0.000185289
0.000191011
0.000194472
0.000195011
0.000192154
0.000185521
0.000174634
0.00015878
)
;
    }
    heatsource1
    {
        type            nutkWallFunction;
        Cmu             0.09;
        kappa           0.41;
        E               9.8;
        value           nonuniform List<scalar> 3(7.60822e-05 9.14554e-05 0.000102393);
    }
    heatsource2
    {
        type            nutkWallFunction;
        Cmu             0.09;
        kappa           0.41;
        E               9.8;
        value           nonuniform List<scalar> 4(0.000150132 0.000101814 0.000101814 0.00015836);
    }
    Table_master
    {
        type            nutkWallFunction;
        Cmu             0.09;
        kappa           0.41;
        E               9.8;
        value           nonuniform List<scalar> 9(0.000111685 9.8251e-05 8.72449e-05 7.82451e-05 7.084e-05 6.46952e-05 5.95614e-05 5.52972e-05 5.18591e-05);
    }
    Table_slave
    {
        type            nutkWallFunction;
        Cmu             0.09;
        kappa           0.41;
        E               9.8;
        value           nonuniform List<scalar> 9(0.000125572 0.000114169 0.00010572 9.90184e-05 9.32084e-05 8.8029e-05 8.30061e-05 7.77529e-05 7.17255e-05);
    }
    inlet
    {
        type            calculated;
        value           uniform 0.000100623;
    }
    outlet
    {
        type            calculated;
        value           nonuniform List<scalar> 2(0.00196191 0.00208288);
    }
}


// ************************************************************************* //
