/*--------------------------------*- C++ -*----------------------------------*\
  =========                 |
  \\      /  F ield         | OpenFOAM: The Open Source CFD Toolbox
   \\    /   O peration     | Website:  https://openfoam.org
    \\  /    A nd           | Version:  6
     \\/     M anipulation  |
\*---------------------------------------------------------------------------*/
FoamFile
{
    version     2.0;
    format      ascii;
    class       surfaceScalarField;
    location    "1100";
    object      phi;
}
// * * * * * * * * * * * * * * * * * * * * * * * * * * * * * * * * * * * * * //

dimensions      [1 0 -1 0 0 0 0];

internalField   nonuniform List<scalar> 
852
(
-0.00308275
0.00314219
-0.00422235
0.00113958
-0.00505166
0.000829278
-0.00565973
0.000608043
-0.00601322
0.000353468
-0.00608623
7.2977e-05
-0.00585691
-0.000229346
-0.00532625
-0.000530686
-0.00454301
-0.00078327
-0.00359687
-0.000946165
-0.00259411
-0.00100279
-0.00164327
-0.000950866
-0.000849178
-0.000794116
-0.00029976
-0.000549443
-0.000297625
-0.000891031
0.00089454
-0.000618225
-0.000272831
5.77151e-05
-0.000675964
0.000647952
-0.000590261
0.00106831
-0.000420382
0.00134768
-0.000279397
0.00150552
-0.000157862
0.00158328
-7.77765e-05
0.00162779
-4.45433e-05
0.00165662
-2.88484e-05
0.00167456
-1.79646e-05
0.00168342
-8.87857e-06
0.0016814
1.99425e-06
0.00165948
2.18946e-05
0.00159305
6.64031e-05
0.00144037
0.000152657
0.00118294
0.000257408
0.00084259
0.000340327
0.000847258
-0.002198
0.00550029
-0.00328213
0.00222368
-0.00412444
0.00167156
-0.00472315
0.00120672
-0.00507281
0.000703104
-0.0051537
0.000153836
-0.00494368
-0.000439384
-0.00445598
-0.00101841
-0.00375269
-0.00148659
-0.00292807
-0.00177081
-0.00207647
-0.00185442
-0.00128144
-0.00174592
-0.000610404
-0.00146518
-0.000122325
-0.00103755
0.000156213
-0.000576188
0.00026334
-0.000107204
0.000263261
0.000226356
0.000678535
0.000690402
-0.000736901
0.00101483
-0.00100041
0.00128673
-0.000862191
0.00150515
-0.000638818
0.00164855
-0.00042282
0.00167638
-0.000185725
0.00168315
-8.4567e-05
0.00169086
-5.22741e-05
0.00169723
-3.52453e-05
0.00170144
-2.21933e-05
0.0017038
-1.12602e-05
0.00170351
2.25569e-06
0.00169659
2.87927e-05
0.00165184
0.000111129
0.0014616
0.000342879
0.00113305
0.000585929
0.000716892
0.000756463
0.00157628
-0.00153264
0.00727799
-0.00245304
0.00314405
-0.00319413
0.00241262
-0.00370409
0.00171665
-0.00399998
0.000998971
-0.00405195
0.000205779
-0.00381982
-0.000671545
-0.0033372
-0.00150106
-0.00268815
-0.00213567
-0.00197304
-0.00248594
-0.00126643
-0.00256106
-0.000623003
-0.00238938
-7.58072e-05
-0.0020124
0.00035623
-0.00146961
0.000632427
-0.000852409
0.00068658
-0.000161382
0.000949816
0.00165201
-0.000961942
0.00190244
-0.000987352
0.00186792
-0.00096592
0.00186514
-0.000859432
0.00189974
-0.000673443
0.00195625
-0.000479351
0.00177066
0.00168622
0.00163408
0.00159897
0.0015769
0.00156577
0.00156816
0.00159708
0.00170834
0.00140653
0.000644671
0.00104272
0.000949711
0.000593259
0.00120591
0.00218801
-0.00106086
0.00865652
-0.00177554
0.0038587
-0.00226007
0.00289712
-0.00258554
0.00204209
-0.00274999
0.0011634
-0.00269013
0.000145886
-0.00236689
-0.00099481
-0.00187154
-0.00199643
-0.00129935
-0.00270789
-0.000735521
-0.0030498
-0.000218101
-0.0030785
0.000232147
-0.00283965
0.000611065
-0.00239134
0.000947426
-0.00180599
0.00125567
-0.00116068
0.00161961
-0.000525341
0.00259225
-2.28501e-05
0.00286393
-0.000261515
0.00250041
-0.000598446
0.00232934
-0.000816309
0.00216334
-0.000799944
0.00201785
-0.000713959
0.00192186
-0.000577483
0.001837
-0.000394506
0.00199781
-0.000160981
0.00208145
-8.38163e-05
0.00213671
-5.54335e-05
0.00216816
-3.16282e-05
0.00216296
5.03274e-06
0.00210296
5.98224e-05
0.00196568
0.000137116
0.00171855
0.000246952
0.00130309
0.000415295
0.00115045
0.000797283
0.000833265
0.00126688
0.000365074
0.00167408
0.00257731
-0.000734372
0.0097704
-0.00126144
0.00438574
-0.00134766
0.00298331
-0.00137903
0.00207344
-0.00129769
0.00108203
-0.000993114
-0.000158712
-0.000528724
-0.00145923
-4.92969e-05
-0.00247589
0.000368813
-0.00312603
0.000703233
-0.00338425
0.000955227
-0.00333053
0.00114295
-0.0030274
0.00129577
-0.00254418
0.00144416
-0.00195441
0.00161787
-0.00133441
0.00186408
-0.000771577
0.00222649
-0.000385279
0.00231654
-0.000351592
0.00221447
-0.000496399
0.00200624
-0.000608094
0.00181059
-0.000604315
0.00163874
-0.000542133
0.00150697
-0.000445737
0.00143259
-0.000320145
0.00146263
-0.000191041
0.00150201
-0.000123208
0.00154142
-9.48595e-05
0.00157841
-6.86405e-05
0.00160201
-1.85858e-05
0.00159459
6.723e-05
0.00153913
0.000192558
0.00142317
0.000362895
0.00124732
0.000591129
0.0010947
0.000949879
0.000930065
0.0014315
0.000557847
0.00204627
0.000481259
0.00265388
-0.00109385
0.00157489
-0.00156199
0.000467913
-0.00150887
-0.000629486
0.0108316
-0.000968545
0.00472477
-0.0004928
0.00250754
-2.65412e-05
0.00160715
0.00051128
0.000544183
0.00114009
-0.000787549
0.00166107
-0.00198023
0.00200558
-0.00282043
0.00216925
-0.00328974
0.00220119
-0.00341621
0.00213329
-0.00326265
0.00200606
-0.0029002
0.00186389
-0.00240204
0.00174515
-0.00183568
0.00167717
-0.00126645
0.00167788
-0.000772307
0.00172821
-0.000435627
0.00169877
-0.000322176
0.0015582
-0.000355848
0.00135311
-0.000403017
0.00115618
-0.000407404
0.000990683
-0.000376659
0.000868734
-0.000323806
0.000804624
-0.000256053
0.000805317
-0.000191751
0.000841587
-0.000159496
0.000895968
-0.000149257
0.000961642
-0.000134331
0.0010327
-8.96614e-05
0.00109283
7.08525e-06
0.00112702
0.000158357
0.00113717
0.000352723
0.00112881
0.00059948
0.00114948
0.000929187
0.00125235
0.00132861
0.00144579
0.00185281
0.00194937
0.00215027
0.00223193
0.00129231
0.00183687
0.00086296
0.000391736
-0.000639539
0.0119506
-0.000453078
0.00453828
0.000850907
0.00120353
0.0019117
0.000546327
0.00287826
-0.000422397
0.00364535
-0.00155467
0.00406129
-0.0023962
0.00414549
-0.00290467
0.00396434
-0.00310862
0.0036005
-0.00305239
0.00312878
-0.00279097
0.00261867
-0.00239011
0.00213119
-0.00191458
0.00171012
-0.00141464
0.00137775
-0.000934094
0.00114556
-0.000540126
0.00099463
-0.000284719
0.00085849
-0.000186055
0.000694764
-0.00019214
0.000515572
-0.000223843
0.000349813
-0.000241663
0.000214734
-0.000241598
0.000120189
-0.000229278
7.4922e-05
-0.000210802
7.98562e-05
-0.000196701
0.000119132
-0.000198786
0.000179123
-0.000209263
0.000256111
-0.000211334
0.000352688
-0.000186253
0.000471413
-0.000111654
0.000597118
3.26379e-05
0.000723714
0.000226112
0.000865997
0.000457182
0.00106025
0.000734922
0.00135973
0.00102911
0.00183608
0.00137645
0.00258048
0.00140584
0.00317793
0.000694848
0.00324178
0.000799085
0.00370217
0.00285057
0.00963707
0.00367814
0.00371068
0.00442615
0.000455489
0.00559711
-0.000624657
0.00649328
-0.00131859
0.00683062
-0.00189204
0.00670059
-0.00226619
0.00620111
-0.00240522
0.00544058
-0.00234812
0.00453169
-0.00214352
0.00357417
-0.00183348
0.00265301
-0.00146896
0.00183288
-0.00109447
0.00115217
-0.000733945
0.000623433
-0.000405373
0.000259642
-0.00017635
3.16693e-05
-5.67619e-05
-0.000125442
-2.89599e-05
-0.000263094
-5.4505e-05
-0.00039417
-9.2784e-05
-0.000511137
-0.000124711
-0.000605351
-0.0001474
-0.000671248
-0.000163396
-0.000705381
-0.000176685
-0.000709807
-0.000192289
-0.000695092
-0.000213517
-0.000669278
-0.000235091
-0.000632663
-0.000247963
-0.000576601
-0.000242329
-0.000481917
-0.000206353
-0.000329666
-0.000119627
-0.0001411
3.75315e-05
7.93135e-05
0.000236753
0.000357669
0.000456551
0.000701327
0.000685433
0.00116557
0.000912193
0.00167708
0.000894311
0.0018438
0.000528116
0.00101868
0.00162418
0.00500891
0.0102319
0.0139387
0.0129931
0.00140111
0.0123664
1.95888e-06
0.011476
-0.000428231
0.0102908
-0.000706817
0.0088512
-0.000826633
0.0072786
-0.000832646
0.0056848
-0.000754336
0.00416523
-0.000623974
0.00278804
-0.000456303
0.00160542
-0.000286356
0.000637142
-0.000126201
-0.000107604
1.07904e-05
-0.000603591
9.06021e-05
-0.000880736
0.000100783
-0.00102756
9.005e-05
-0.00111891
6.23729e-05
-0.00119859
2.51575e-05
-0.00127948
-1.19052e-05
-0.00135857
-4.56394e-05
-0.00143036
-7.56214e-05
-0.00149226
-0.000101516
-0.00154413
-0.000124821
-0.00159049
-0.000145948
-0.00164026
-0.000163754
-0.00170255
-0.000172824
-0.00178608
-0.000164439
-0.00190141
-0.000127012
-0.00206219
-4.55925e-05
-0.00227024
8.84112e-05
-0.00251927
0.000286549
-0.00285356
0.000571028
-0.00335959
0.000962562
-0.00413201
0.00145784
-0.00523061
0.00201077
-0.0067669
0.00243058
-0.00860452
0.00236573
-0.00801334
0.00103299
-0.00268512
0.00440263
0.00326332
0.0033164
0.00108815
0.00350267
-0.000614511
0.00331784
-0.000521989
0.00274367
-0.000252463
0.00195588
-4.48687e-05
0.00107587
0.000125671
0.000209218
0.000242675
-0.000544138
0.00029705
-0.00112153
0.000291025
-0.00151784
0.000270105
-0.0017498
0.000242733
-0.00186425
0.000205037
-0.00192524
0.000161762
-0.00195957
0.00012437
-0.00198958
9.23669e-05
-0.0020282
6.37655e-05
-0.00207824
3.8115e-05
-0.00213885
1.49623e-05
-0.00220754
-6.94839e-06
-0.0022811
-2.79682e-05
-0.00235846
-4.7474e-05
-0.00244258
-6.18341e-05
-0.00253689
-6.94594e-05
-0.0026427
-6.70317e-05
-0.00275789
-4.92577e-05
-0.00287484
-1.00785e-05
-0.00298232
6.18718e-05
-0.00307582
0.000181892
-0.00315986
0.000370579
-0.00324173
0.000652885
-0.00333072
0.00105153
-0.0034278
0.00155491
-0.00347624
0.0020592
-0.00339345
0.00234778
-0.00299266
0.00196492
-0.00167055
-0.000289136
-0.00427241
-0.00072136
0.00407035
-0.000434846
0.000801645
-0.00123289
0.000183538
-0.00185908
0.000104199
-0.0022873
0.00017576
-0.00258089
0.000248712
-0.00276133
0.000306111
-0.00286393
0.000345261
-0.00291186
0.000344979
-0.0029263
0.00030545
-0.00290882
0.00025262
-0.00286662
0.000200516
-0.00281513
0.00015353
-0.0027688
0.000115419
-0.002732
8.75637e-05
-0.00270692
6.7273e-05
-0.00269463
5.14639e-05
-0.00269435
3.78153e-05
-0.00270413
2.4739e-05
-0.00272237
1.12749e-05
-0.00274813
-2.21682e-06
-0.00278167
-1.39502e-05
-0.00282174
-2.17809e-05
-0.00286671
-2.44962e-05
-0.00291332
-2.04386e-05
-0.00295597
-6.61929e-06
-0.00298621
2.01448e-05
-0.00298912
6.47694e-05
-0.00294692
0.000139679
-0.00283307
0.000256707
-0.00261328
0.000433083
-0.002258
0.000696235
-0.00176421
0.00106111
-0.00111047
0.00140545
-8.75306e-05
0.00132482
0.00124866
0.00062871
0.00159918
-0.00063967
-0.00258158
-0.00781824
-0.0110747
-0.00695105
-0.00612357
-0.00592287
-0.00580514
-0.00561809
-0.00535964
-0.00504489
-0.00469172
-0.00433926
-0.00402648
-0.00376653
-0.00355862
-0.00339759
-0.00327456
-0.00317925
-0.00310411
-0.00304466
-0.00299879
-0.00296595
-0.00294659
-0.00294077
-0.00294675
-0.00296067
-0.00297743
-0.00299028
-0.00298946
-0.00296207
-0.00289026
-0.00274376
-0.00248048
-0.0020411
-0.00133887
-0.00027211
0.00113849
0.00246817
0.00310165
0.0024669
)
;

boundaryField
{
    floor
    {
        type            calculated;
        value           nonuniform List<scalar> 
29
(
0
0
0
0
0
0
0
0
0
0
0
0
0
0
0
0
0
0
0
0
-4.69073e-06
-1.21486e-05
-1.85016e-05
-2.42452e-05
-2.15828e-06
-3.5338e-06
-1.03753e-05
-1.1555e-05
-1.01861e-05
)
;
    }
    ceiling
    {
        type            calculated;
        value           nonuniform List<scalar> 
43
(
-5.71867e-05
-5.50198e-05
-5.32739e-05
-2.58395e-05
-1.71629e-05
-1.35335e-05
-1.13034e-05
-9.73794e-06
-8.64758e-06
-7.91822e-06
-7.49949e-06
-7.33987e-06
-7.33844e-06
-7.40913e-06
-7.50954e-06
-7.62613e-06
-7.75332e-06
-7.88136e-06
-7.99347e-06
-8.07178e-06
-8.10663e-06
-8.09837e-06
-8.05235e-06
-7.97494e-06
-7.87326e-06
-7.75008e-06
-7.60698e-06
-7.44442e-06
-7.26114e-06
-7.0571e-06
-6.83191e-06
-6.58419e-06
-6.31133e-06
-6.00906e-06
-5.6695e-06
-5.16747e-06
-4.87423e-06
-4.78904e-06
-4.92987e-06
-4.40735e-06
6.2512e-06
3.8414e-06
-8.5669e-05
)
;
    }
    sWall
    {
        type            calculated;
        value           uniform -0.000276385;
    }
    nWall
    {
        type            calculated;
        value           nonuniform List<scalar> 6(-5.33437e-05 -6.376e-05 -6.86739e-05 -8.32683e-05 -9.16629e-05 -0.000110289);
    }
    sideWalls
    {
        type            empty;
        value           nonuniform 0();
    }
    glass1
    {
        type            calculated;
        value           nonuniform List<scalar> 9(-5.94685e-05 -0.000160129 -0.000245088 -0.000317694 -0.000379532 -0.000431761 -0.000479493 -0.000537031 -0.000601115);
    }
    glass2
    {
        type            calculated;
        value           nonuniform List<scalar> 2(-0.000288077 -0.000319329);
    }
    sun
    {
        type            calculated;
        value           uniform 0;
    }
    heatsource1
    {
        type            calculated;
        value           nonuniform List<scalar> 3(2.04869e-07 2.04782e-07 2.04804e-07);
    }
    heatsource2
    {
        type            calculated;
        value           nonuniform List<scalar> 4(5.14259e-08 5.14965e-08 0 0);
    }
    Table_master
    {
        type            calculated;
        value           nonuniform List<scalar> 9(-1.53685e-07 -1.53796e-07 -1.53833e-07 -1.53856e-07 -1.53871e-07 -1.5388e-07 -1.53884e-07 -1.53875e-07 -1.53836e-07);
    }
    Table_slave
    {
        type            calculated;
        value           nonuniform List<scalar> 9(1.53534e-07 1.53561e-07 1.53541e-07 1.53527e-07 1.53526e-07 1.53529e-07 1.53552e-07 1.53603e-07 1.53693e-07);
    }
    inlet
    {
        type            calculated;
        value           uniform -0.00626484;
    }
    outlet
    {
        type            calculated;
        value           nonuniform List<scalar> 2(0.00815181 0.00331145);
    }
}


// ************************************************************************* //
