/*--------------------------------*- C++ -*----------------------------------*\
  =========                 |
  \\      /  F ield         | OpenFOAM: The Open Source CFD Toolbox
   \\    /   O peration     | Website:  https://openfoam.org
    \\  /    A nd           | Version:  6
     \\/     M anipulation  |
\*---------------------------------------------------------------------------*/
FoamFile
{
    version     2.0;
    format      ascii;
    class       volScalarField;
    location    "100";
    object      alphat;
}
// * * * * * * * * * * * * * * * * * * * * * * * * * * * * * * * * * * * * * //

dimensions      [1 -1 -1 0 0 0 0];

internalField   nonuniform List<scalar> 
459
(
0.000937573
0.000985282
0.000973806
0.00100675
0.00103529
0.00105974
0.00108115
0.00110063
0.00111935
0.00113652
0.00114833
0.00115339
0.0011517
0.00114645
0.00114071
0.00056219
0.000708876
0.00068514
0.000660117
0.000638998
0.000618358
0.000593106
0.000567548
0.000544144
0.000522667
0.000503107
0.000485415
0.000469452
0.000454943
0.000441425
0.000428218
0.000414503
0.000412583
0.000388726
0.00140306
0.00240062
0.00207392
0.00241854
0.00262
0.00283174
0.00304129
0.00322933
0.00336712
0.00344765
0.00347901
0.00342268
0.00322131
0.00279245
0.00204432
0.00118177
0.00105924
0.000918206
0.00125574
0.00149905
0.00175131
0.00195326
0.00200512
0.00170254
0.00152696
0.00138504
0.00126995
0.00117521
0.00109592
0.00102734
0.000963669
0.000899279
0.000840545
0.000784809
0.000976001
0.000519611
0.00182297
0.0035158
0.0022732
0.00333355
0.00360482
0.0037855
0.00391997
0.00402056
0.00409524
0.00414973
0.0041893
0.00418486
0.00409911
0.00389121
0.00350313
0.00278469
0.00131471
0.00109567
0.00197634
0.00251876
0.00293785
0.00316971
0.0028861
0.000799418
0.000712828
0.000646833
0.000595635
0.000554991
0.000522038
0.00049497
0.000472879
0.000456055
0.000516879
0.000620598
0.0011441
0.000617554
0.00225263
0.00517383
0.00219108
0.0036341
0.00402821
0.0041232
0.00414533
0.00414633
0.00415666
0.00418507
0.00422765
0.00425654
0.0042413
0.00416688
0.004046
0.00388835
0.00342
0.00125578
0.00256032
0.00324289
0.00368751
0.00396322
0.00406068
0.00352485
0.000882776
0.000836462
0.000816534
0.000805422
0.000792698
0.000771379
0.000742223
0.000710137
0.000670152
0.000646964
0.000680033
0.00142727
0.000688095
0.00269139
0.0073754
0.0026289
0.00339203
0.00414141
0.00421395
0.00416172
0.00409698
0.00407435
0.00410252
0.00417255
0.00424139
0.00425894
0.00418341
0.00402335
0.00396441
0.00433851
0.0044719
0.00424818
0.0042653
0.00434017
0.0044456
0.00452646
0.00445069
0.00394054
0.00384946
0.00383291
0.00379857
0.00371231
0.00355563
0.00326033
0.00281465
0.00228507
0.00174841
0.00129879
0.00135499
0.000937863
0.000834209
0.00098637
0.00110644
0.00314203
0.00973437
0.00438759
0.00298131
0.00382941
0.00411712
0.00412492
0.00404884
0.00399438
0.00401774
0.00413792
0.0042616
0.00433043
0.00426567
0.00399269
0.00369475
0.00411106
0.00460785
0.00459165
0.00450883
0.00447662
0.00452355
0.00461233
0.00468806
0.00470774
0.00473897
0.004735
0.00467636
0.0045627
0.00440473
0.00420177
0.00385497
0.00335396
0.00272677
0.00209654
0.0015132
0.00124149
0.00110686
0.00158526
0.00117042
0.00359163
0.0116379
0.00782527
0.00419586
0.00321199
0.00328072
0.00363423
0.00391745
0.00394583
0.00400388
0.00415542
0.00430148
0.00440825
0.00438465
0.00405972
0.00349644
0.00384014
0.00456688
0.00466332
0.00454108
0.00446194
0.00447764
0.00455154
0.00463889
0.0047088
0.00474233
0.00471284
0.00462483
0.00449932
0.00436527
0.00424729
0.00411269
0.00376539
0.00323023
0.00266049
0.00208652
0.00174299
0.0017175
0.00182802
0.00139393
0.00370183
0.0114269
0.0094504
0.00752301
0.0056227
0.00437374
0.00390224
0.00396091
0.00410962
0.00417202
0.00425377
0.00436211
0.00446388
0.00445449
0.00410482
0.00336143
0.00359812
0.00457628
0.00475098
0.0045757
0.00445995
0.00444153
0.00447391
0.00451262
0.00452603
0.00449232
0.0044041
0.00427736
0.00414985
0.00406498
0.00405493
0.00411709
0.0040937
0.00372295
0.00338688
0.00328781
0.00365019
0.00458701
0.00573326
0.0020437
0.00362637
0.00439629
0.00503178
0.0052827
0.00519632
0.00484661
0.00450306
0.00430998
0.0042218
0.00422467
0.00429814
0.00440665
0.0045038
0.00447713
0.00404863
0.00310458
0.00333256
0.00467308
0.00489956
0.00467158
0.00452905
0.0044765
0.00445996
0.00443712
0.00437808
0.00426387
0.00408993
0.00387172
0.00364347
0.00344365
0.0032941
0.00319147
0.00312415
0.0030845
0.00309686
0.0031441
0.00312842
0.00296527
0.0027256
0.00186033
0.00291125
0.0049826
0.00523264
0.00515052
0.00498579
0.00484592
0.0047539
0.0046824
0.00463289
0.00458972
0.0045274
0.00434266
0.00372398
0.00261427
0.0029604
0.00490529
0.00511511
0.00484667
0.00471903
0.00467109
0.00464789
0.00461222
0.00453764
0.00440743
0.00421469
0.00396848
0.00369907
0.00345379
0.00328139
0.00320067
0.00318453
0.00320112
0.00322159
0.0031947
0.0030522
0.00276342
0.00235761
0.00152078
0.00301904
0.00576055
0.00591006
0.00567012
0.00543239
0.00519801
0.00495575
0.00471246
0.00441496
0.00407814
0.00374085
0.00337467
0.00278597
0.00194215
0.00240127
0.00439082
0.00466236
0.00456649
0.00450972
0.0044811
0.00446443
0.00443671
0.00438243
0.00429677
0.00418169
0.00404448
0.00389572
0.00374349
0.00360901
0.0035435
0.0035422
0.00358193
0.00362818
0.00366422
0.00363903
0.00357997
0.00297466
0.00154578
0.00259407
0.00273569
0.00285761
0.00300506
0.00279934
0.00258308
0.00237797
0.00219642
0.00202532
0.00186635
0.00173054
0.00161379
0.00150813
0.00140952
0.00131177
0.0011857
0.00116261
0.0012642
0.00121812
0.00121015
0.0012047
0.00120112
0.00119831
0.00119531
0.00119236
0.00119084
0.00119288
0.00120102
0.00121816
0.00124788
0.00129198
0.00134775
0.0014159
0.00149537
0.00158438
0.00170368
0.00173499
0.0016926
0.0015779
0.00145505
)
;

boundaryField
{
    floor
    {
        type            compressible::alphatWallFunction;
        Prt             0.85;
        value           nonuniform List<scalar> 
29
(
0.000161872
7.86166e-05
0.000100425
9.69387e-05
9.32459e-05
9.01157e-05
8.70436e-05
8.32677e-05
7.94256e-05
7.58888e-05
7.26268e-05
6.96413e-05
6.69287e-05
6.44705e-05
6.22273e-05
6.0129e-05
5.80709e-05
5.5925e-05
5.56218e-05
5.18644e-05
5.18637e-05
7.21497e-05
8.69051e-05
9.73551e-05
0.00016187
7.86157e-05
0.000130631
0.000155612
0.00017774
)
;
    }
    ceiling
    {
        type            compressible::alphatWallFunction;
        Prt             0.85;
        value           nonuniform List<scalar> 
43
(
0.000353207
0.000371097
0.000386422
0.00040498
0.000379263
0.000351993
0.00032589
0.00030258
0.000280419
0.000259646
0.000241745
0.000226235
0.00021209
0.000198789
0.0001855
0.000168195
0.000165027
0.000179014
0.000172689
0.000171594
0.000170842
0.000170349
0.000169961
0.000169547
0.00016914
0.000168931
0.000169212
0.000170335
0.000172697
0.000176783
0.000182824
0.000190432
0.000199681
0.000210403
0.000222338
0.000238218
0.000242366
0.00023675
0.000221474
0.000204977
0.000481988
0.000575242
0.000406503
)
;
    }
    sWall
    {
        type            compressible::alphatWallFunction;
        Prt             0.85;
        value           uniform 0.000351918;
    }
    nWall
    {
        type            compressible::alphatWallFunction;
        Prt             0.85;
        value           nonuniform List<scalar> 6(0.000156842 0.000165709 0.000196291 0.000213439 0.000216789 0.000204592);
    }
    sideWalls
    {
        type            empty;
    }
    glass1
    {
        type            compressible::alphatWallFunction;
        Prt             0.85;
        value           nonuniform List<scalar> 9(0.000129404 0.000192718 0.000247992 0.000303259 0.000358647 0.000414627 0.000469705 0.000483247 0.000474329);
    }
    glass2
    {
        type            compressible::alphatWallFunction;
        Prt             0.85;
        value           nonuniform List<scalar> 2(0.00028013 0.000256421);
    }
    sun
    {
        type            compressible::alphatWallFunction;
        Prt             0.85;
        value           nonuniform List<scalar> 
14
(
0.000133404
0.000140134
0.000138514
0.000143158
0.000147168
0.000150592
0.000153585
0.000156301
0.000158906
0.00016129
0.000162929
0.000163629
0.000163395
0.000162667
)
;
    }
    heatsource1
    {
        type            compressible::alphatWallFunction;
        Prt             0.85;
        value           nonuniform List<scalar> 3(0.000118825 0.000140498 0.000157322);
    }
    heatsource2
    {
        type            compressible::alphatWallFunction;
        Prt             0.85;
        value           nonuniform List<scalar> 4(0.000167777 0.000150742 0.00015074 0.000186031);
    }
    Table_master
    {
        type            compressible::alphatWallFunction;
        Prt             0.85;
        value           nonuniform List<scalar> 9(0.000113819 0.000101211 9.14773e-05 8.38421e-05 7.77233e-05 7.27216e-05 6.85835e-05 6.51856e-05 6.25846e-05);
    }
    Table_slave
    {
        type            compressible::alphatWallFunction;
        Prt             0.85;
        value           nonuniform List<scalar> 9(0.000125804 0.000119162 0.00011629 0.000114684 0.000112843 0.000109751 0.000105506 0.000100811 9.49244e-05);
    }
    inlet
    {
        type            fixedValue;
        value           uniform 1.94e-05;
    }
    outlet
    {
        type            zeroGradient;
    }
}


// ************************************************************************* //
