/*--------------------------------*- C++ -*----------------------------------*\
  =========                 |
  \\      /  F ield         | OpenFOAM: The Open Source CFD Toolbox
   \\    /   O peration     | Website:  https://openfoam.org
    \\  /    A nd           | Version:  6
     \\/     M anipulation  |
\*---------------------------------------------------------------------------*/
FoamFile
{
    version     2.0;
    format      ascii;
    class       volScalarField;
    location    "100";
    object      epsilon;
}
// * * * * * * * * * * * * * * * * * * * * * * * * * * * * * * * * * * * * * //

dimensions      [0 2 -3 0 0 0 0];

internalField   nonuniform List<scalar> 
459
(
0.000183663
0.000212449
0.000205097
0.000226627
0.000246456
0.000264336
0.000280692
0.000296141
0.00031151
0.00032606
0.000336331
0.000340778
0.000339272
0.000334633
0.000329629
3.94767e-05
7.91234e-05
7.14387e-05
6.38914e-05
5.795e-05
5.25097e-05
4.63316e-05
4.0592e-05
3.57712e-05
3.16979e-05
2.82686e-05
2.53885e-05
2.29641e-05
2.08992e-05
1.90905e-05
1.74273e-05
1.58054e-05
1.55846e-05
1.30359e-05
0.000617033
0.00126573
0.000196527
0.00017117
0.000168495
0.000168902
0.000171939
0.000178953
0.000191358
0.000208452
0.000225911
0.000240259
0.00024891
0.000255214
0.000280149
0.000366501
0.000263903
0.000171969
0.000118118
8.13198e-05
6.13883e-05
4.98853e-05
4.30149e-05
4.00325e-05
3.48629e-05
3.00849e-05
2.59012e-05
2.23477e-05
1.93827e-05
1.69323e-05
1.49316e-05
1.34268e-05
1.27254e-05
1.32249e-05
4.69137e-05
3.11166e-05
0.00135672
0.00396725
0.000307708
0.000169585
0.000161466
0.000165341
0.000174083
0.000188146
0.000207688
0.000231226
0.000253332
0.000267853
0.000271536
0.000268941
0.000276463
0.000319918
0.000504752
0.00029227
0.000127147
8.07121e-05
6.26844e-05
5.35999e-05
5.18313e-05
0.000113471
8.04324e-05
6.00838e-05
4.69054e-05
3.79354e-05
3.15652e-05
2.69005e-05
2.34537e-05
2.10362e-05
1.6994e-05
1.65186e-05
0.000102997
5.22261e-05
0.002566
0.00921685
0.000637999
0.000184223
0.000163011
0.00017131
0.000185586
0.000205918
0.000233387
0.000267102
0.000296376
0.000310116
0.000304993
0.000286872
0.000269364
0.000274311
0.000338519
0.000439971
0.00022352
0.000106821
7.39882e-05
6.14891e-05
5.59237e-05
5.84944e-05
0.000152847
0.000130014
0.000120927
0.000116044
0.000110619
0.000101921
9.07863e-05
7.95047e-05
6.68065e-05
4.09386e-05
3.0421e-05
0.000210942
7.22493e-05
0.00438604
0.0172271
0.00150877
0.000232603
0.000165804
0.000174471
0.000194916
0.000226163
0.000271536
0.000329845
0.000375248
0.0003903
0.000374943
0.000337339
0.000290032
0.000257303
0.000266789
0.000266862
0.000143822
9.57661e-05
7.46969e-05
6.61874e-05
6.32104e-05
6.41344e-05
7.28188e-05
7.73346e-05
8.07454e-05
8.25136e-05
8.14422e-05
7.6544e-05
6.86792e-05
6.15336e-05
5.54823e-05
4.64078e-05
3.92389e-05
0.000135598
8.98404e-05
0.000128848
0.000213089
0.000300798
0.00699195
0.0257042
0.00381275
0.000470522
0.000211929
0.000191742
0.000207879
0.000248207
0.000326077
0.000434728
0.00049911
0.000509827
0.000479806
0.000420776
0.00034145
0.000270334
0.000259215
0.000225083
0.000144209
0.000103918
8.5972e-05
7.94149e-05
7.82846e-05
8.06429e-05
8.67334e-05
9.43274e-05
0.000101849
0.000107697
0.000110082
0.000106571
9.4762e-05
7.92045e-05
6.58035e-05
5.47293e-05
4.98265e-05
8.76097e-05
9.19818e-05
0.000104156
0.000403282
0.000355898
0.0104591
0.0304477
0.00929069
0.00207415
0.000789906
0.00043854
0.000350632
0.000359684
0.000492793
0.000645655
0.000695243
0.000675318
0.000615931
0.000530343
0.000417202
0.000300724
0.000276016
0.000254566
0.000171407
0.000127359
0.000109486
0.000103379
0.000102913
0.000106232
0.000113084
0.000122743
0.000134364
0.000146283
0.00015736
0.0001646
0.00016222
0.00013956
0.000117175
9.95833e-05
9.42082e-05
0.000115992
0.000159198
0.000284872
0.000665314
0.00060112
0.0114802
0.0366308
0.0186842
0.0107691
0.00566133
0.00290733
0.00170178
0.00124142
0.00114871
0.00109775
0.00101077
0.000899684
0.000780653
0.000654748
0.000504713
0.000343093
0.000300068
0.000305405
0.000217583
0.00016932
0.000150517
0.000143579
0.000142196
0.000144645
0.000150689
0.000160344
0.000173935
0.000192345
0.00021703
0.000248767
0.00028598
0.000320275
0.000325702
0.000354901
0.000434813
0.000700725
0.00142035
0.00295016
0.00853006
0.00189967
0.0108301
0.0192296
0.0160922
0.0120918
0.00870126
0.00599257
0.00413395
0.00299536
0.00226796
0.00176452
0.00140879
0.00114864
0.000949221
0.000776353
0.000583434
0.000373807
0.000323549
0.000378245
0.000297337
0.000246337
0.000225976
0.000216676
0.00021207
0.000210288
0.00021102
0.000214799
0.00022321
0.000239367
0.000268097
0.000315495
0.000388228
0.000493163
0.000638431
0.000844701
0.00115297
0.00156186
0.00200556
0.0023513
0.00259428
0.00143603
0.00750888
0.0104733
0.0078081
0.00579318
0.00430343
0.00324248
0.00249259
0.00194966
0.00155195
0.001256
0.00102931
0.000831953
0.000606666
0.000373975
0.000337259
0.000504104
0.000456181
0.000404278
0.000383531
0.00037306
0.000366106
0.000359884
0.000353087
0.000345574
0.000338436
0.000334498
0.000338925
0.000359508
0.000406776
0.000491043
0.000620437
0.000802949
0.0010388
0.00129007
0.0014663
0.00145333
0.00117058
0.000784057
0.00581869
0.00963223
0.00721109
0.0053312
0.00402757
0.00305901
0.00231993
0.0017671
0.0013553
0.00104713
0.000818505
0.000649069
0.000516184
0.000361532
0.000342208
0.000533535
0.000663576
0.000660957
0.000645348
0.000633625
0.000624053
0.000612627
0.000596814
0.000576413
0.000553589
0.000532681
0.000519666
0.000521396
0.000546359
0.000605987
0.000708962
0.000860955
0.00105844
0.00129041
0.00147855
0.00158207
0.00103103
0.000823242
0.00375568
0.00440257
0.00501762
0.00593593
0.00483012
0.00380925
0.00297716
0.0023476
0.00184117
0.00144097
0.00114883
0.000931724
0.000760494
0.000620904
0.000500515
0.000370035
0.000349765
0.00044971
0.000402418
0.000394603
0.000389298
0.000385841
0.000383133
0.000380264
0.000377456
0.000376021
0.000377954
0.000385741
0.000402498
0.00043268
0.00048018
0.000545089
0.000632031
0.000744568
0.000885652
0.00110135
0.00116336
0.00108026
0.000875227
0.000686585
)
;

boundaryField
{
    floor
    {
        Cmu             0.09;
        kappa           0.41;
        E               9.8;
        type            epsilonWallFunction;
        value           nonuniform List<scalar> 
29
(
0.000329629
3.94767e-05
7.91234e-05
7.14387e-05
6.38914e-05
5.795e-05
5.25097e-05
4.63316e-05
4.0592e-05
3.57712e-05
3.16979e-05
2.82686e-05
2.53885e-05
2.29641e-05
2.08992e-05
1.90905e-05
1.74273e-05
1.58054e-05
1.55846e-05
1.30359e-05
1.30359e-05
3.11166e-05
5.22261e-05
7.22493e-05
0.000329629
3.94767e-05
0.000171969
0.00029227
0.000439971
)
;
    }
    ceiling
    {
        Cmu             0.09;
        kappa           0.41;
        E               9.8;
        type            epsilonWallFunction;
        value           nonuniform List<scalar> 
43
(
0.00375568
0.00440257
0.00501762
0.00593593
0.00483012
0.00380925
0.00297716
0.0023476
0.00184117
0.00144097
0.00114883
0.000931724
0.000760494
0.000620904
0.000500515
0.000370035
0.000349765
0.00044971
0.000402418
0.000394603
0.000389298
0.000385841
0.000383133
0.000380264
0.000377456
0.000376021
0.000377954
0.000385741
0.000402498
0.00043268
0.00048018
0.000545089
0.000632031
0.000744568
0.000885652
0.00110135
0.00116336
0.00108026
0.000875227
0.000686585
0.0108301
0.0192296
0.00581869
)
;
    }
    sWall
    {
        Cmu             0.09;
        kappa           0.41;
        E               9.8;
        type            epsilonWallFunction;
        value           uniform 0.00375568;
    }
    nWall
    {
        Cmu             0.09;
        kappa           0.41;
        E               9.8;
        type            epsilonWallFunction;
        value           nonuniform List<scalar> 6(0.000300798 0.000355898 0.00060112 0.000784057 0.000823242 0.000686585);
    }
    sideWalls
    {
        type            empty;
    }
    glass1
    {
        Cmu             0.09;
        kappa           0.41;
        E               9.8;
        type            epsilonWallFunction;
        value           nonuniform List<scalar> 9(0.000183663 0.000617033 0.00135672 0.002566 0.00438604 0.00699195 0.0104591 0.0114802 0.0108301);
    }
    glass2
    {
        Cmu             0.09;
        kappa           0.41;
        E               9.8;
        type            epsilonWallFunction;
        value           nonuniform List<scalar> 2(0.00189967 0.00143603);
    }
    sun
    {
        Cmu             0.09;
        kappa           0.41;
        E               9.8;
        type            epsilonWallFunction;
        value           nonuniform List<scalar> 
14
(
0.000183663
0.000212449
0.000205097
0.000226627
0.000246456
0.000264336
0.000280692
0.000296141
0.00031151
0.00032606
0.000336331
0.000340778
0.000339272
0.000334633
)
;
    }
    heatsource1
    {
        Cmu             0.09;
        kappa           0.41;
        E               9.8;
        type            epsilonWallFunction;
        value           nonuniform List<scalar> 3(0.000128848 0.000213089 0.000300798);
    }
    heatsource2
    {
        Cmu             0.09;
        kappa           0.41;
        E               9.8;
        type            epsilonWallFunction;
        value           nonuniform List<scalar> 4(0.000366501 0.000263903 0.000263903 0.000504752);
    }
    Table_master
    {
        Cmu             0.09;
        kappa           0.41;
        E               9.8;
        type            epsilonWallFunction;
        value           nonuniform List<scalar> 9(0.000113471 8.04324e-05 6.00838e-05 4.69054e-05 3.79354e-05 3.15652e-05 2.69005e-05 2.34537e-05 2.10362e-05);
    }
    Table_slave
    {
        Cmu             0.09;
        kappa           0.41;
        E               9.8;
        type            epsilonWallFunction;
        value           nonuniform List<scalar> 9(0.000152847 0.000130014 0.000120927 0.000116044 0.000110619 0.000101921 9.07863e-05 7.95047e-05 6.68065e-05);
    }
    inlet
    {
        type            turbulentMixingLengthDissipationRateInlet;
        mixingLength    0.01;
        phi             phi;
        k               k;
        value           uniform 0.000101881;
    }
    outlet
    {
        type            zeroGradient;
    }
}


// ************************************************************************* //
