/*--------------------------------*- C++ -*----------------------------------*\
  =========                 |
  \\      /  F ield         | OpenFOAM: The Open Source CFD Toolbox
   \\    /   O peration     | Website:  https://openfoam.org
    \\  /    A nd           | Version:  6
     \\/     M anipulation  |
\*---------------------------------------------------------------------------*/
FoamFile
{
    version     2.0;
    format      ascii;
    class       volScalarField;
    location    "100";
    object      nut;
}
// * * * * * * * * * * * * * * * * * * * * * * * * * * * * * * * * * * * * * //

dimensions      [0 2 -1 0 0 0 0];

internalField   nonuniform List<scalar> 
459
(
0.000803608
0.00084357
0.000833723
0.000861929
0.000886365
0.000907299
0.000925637
0.000942314
0.000958338
0.000973029
0.000983138
0.000987451
0.000985992
0.000981475
0.000976555
0.000481335
0.000606884
0.000586543
0.0005651
0.000547002
0.000529315
0.000507681
0.000485785
0.000465735
0.000447336
0.000430578
0.000415423
0.000401748
0.000389322
0.000377745
0.000366436
0.000354695
0.000353049
0.000332657
0.00120357
0.00205557
0.00177569
0.0020708
0.00224334
0.00242468
0.00260415
0.00276518
0.00288318
0.00295213
0.00297893
0.00293059
0.00275803
0.00239071
0.00175012
0.00101167
0.000906778
0.000786192
0.00107514
0.00128341
0.00149931
0.00167212
0.00171644
0.00145735
0.00130698
0.00118543
0.00108687
0.00100572
0.000937817
0.000879083
0.000824567
0.000769444
0.000719171
0.000671476
0.000835061
0.00044464
0.00156506
0.00301098
0.00194651
0.00285458
0.00308704
0.00324191
0.00335721
0.00344347
0.0035075
0.00355418
0.00358796
0.00358392
0.00351013
0.00333173
0.00299917
0.00238399
0.00112556
0.000938176
0.00169219
0.00215655
0.00251528
0.00271369
0.00247079
0.000684337
0.000610168
0.000553636
0.000509778
0.000474959
0.000446729
0.000423539
0.000404614
0.000390202
0.000442231
0.000530962
0.000978859
0.000528446
0.00193546
0.00443196
0.00187638
0.00311232
0.00345013
0.00353179
0.00355102
0.00355212
0.00356113
0.00358552
0.00362185
0.00364623
0.0036326
0.0035682
0.00346415
0.00332893
0.0029281
0.00107526
0.00219232
0.0027768
0.00315745
0.00339343
0.00347677
0.00301789
0.000755789
0.000716117
0.00069904
0.000689512
0.000678604
0.000660336
0.000635358
0.000607871
0.000573619
0.000553679
0.000581895
0.00122119
0.000588826
0.00231414
0.00631974
0.00225157
0.00290527
0.00354751
0.00361007
0.00356576
0.00351068
0.00349159
0.00351587
0.00357575
0.00363426
0.00364851
0.00358286
0.00344496
0.00339407
0.00371454
0.00382913
0.00363779
0.00365251
0.00371658
0.00380677
0.00387591
0.00381093
0.00337403
0.00329599
0.00328176
0.0032523
0.00317837
0.00304414
0.00279121
0.00240955
0.00195607
0.0014965
0.00111149
0.00115944
0.000802558
0.000714076
0.000844436
0.000947268
0.00270332
0.00834422
0.00375862
0.00255371
0.0032805
0.00352742
0.00353462
0.00346995
0.00342375
0.00344408
0.00354703
0.0036525
0.00371053
0.00365386
0.00341893
0.00316321
0.00351985
0.0039457
0.00393217
0.00386134
0.00383373
0.00387384
0.00394978
0.00401454
0.00403133
0.00405801
0.00405455
0.00400426
0.00390685
0.00377146
0.00359752
0.0033004
0.00287126
0.00233411
0.00179439
0.00129495
0.0010624
0.000947307
0.00135681
0.0010019
0.00309171
0.00998221
0.00670743
0.00359525
0.00275202
0.00281107
0.00311433
0.00335753
0.00338251
0.0034328
0.0035627
0.00368731
0.00377776
0.00375618
0.00347653
0.00299343
0.00328793
0.00391079
0.00399381
0.00388924
0.00382145
0.00383483
0.00389805
0.0039728
0.00403261
0.00406128
0.00403597
0.00396053
0.00385296
0.00373803
0.00363682
0.00352132
0.0032237
0.00276527
0.00227728
0.00178577
0.00149167
0.0014699
0.00156455
0.00119318
0.00318922
0.0098186
0.00811406
0.00645467
0.00482183
0.0037498
0.0033453
0.00339572
0.00352373
0.00357756
0.00364741
0.00373951
0.00382555
0.00381609
0.00351517
0.00287783
0.00308077
0.003919
0.00406915
0.00391917
0.00382002
0.00380421
0.00383189
0.003865
0.00387645
0.00384753
0.00377193
0.00366333
0.00355405
0.00348126
0.0034725
0.00352551
0.00350517
0.00318745
0.00289948
0.00281444
0.00312461
0.00392692
0.00490878
0.00175094
0.00312785
0.00378757
0.0043306
0.00454219
0.0044643
0.00416135
0.00386486
0.00369832
0.0036221
0.00362368
0.00368555
0.0037773
0.00385921
0.00383498
0.0034667
0.00265781
0.00285347
0.00400214
0.00419671
0.00400159
0.00387952
0.00383448
0.00382028
0.00380068
0.00375009
0.00365223
0.00350322
0.00331628
0.00312074
0.00294956
0.00282144
0.00273355
0.00267595
0.00264209
0.00265291
0.00269375
0.0026808
0.00254143
0.00233627
0.00159502
0.0024457
0.0042364
0.00447177
0.00440924
0.00427104
0.00415219
0.00407342
0.00401202
0.00396918
0.00393162
0.00387753
0.00371853
0.00318801
0.00223789
0.00253501
0.00420141
0.00438171
0.00415191
0.00404259
0.0040015
0.00398161
0.00395104
0.00388714
0.00377559
0.00361049
0.00339959
0.00316883
0.00295874
0.00281109
0.002742
0.00272825
0.00274259
0.00276035
0.00273761
0.00261582
0.00236858
0.00202087
0.00130365
0.00254283
0.00489697
0.00504322
0.00484703
0.00464775
0.00444888
0.00424212
0.004034
0.00377937
0.00349098
0.00320213
0.0028885
0.00238442
0.00166247
0.0020566
0.00376137
0.00399431
0.00391228
0.00386365
0.00383912
0.00382484
0.00380108
0.00375457
0.00368119
0.00358261
0.00346507
0.00333764
0.00320726
0.00309208
0.00303601
0.00303497
0.00306913
0.00310893
0.00314006
0.00311875
0.00306838
0.00254953
0.00132501
0.00219755
0.0023171
0.00242033
0.0025598
0.0023898
0.00220794
0.00203381
0.00187896
0.00173278
0.00159685
0.00148069
0.00138084
0.00129047
0.00120612
0.00112251
0.00101504
0.000996082
0.00108318
0.00104377
0.00103695
0.00103228
0.00102922
0.0010268
0.00102423
0.00102171
0.00102041
0.00102215
0.00102913
0.00104382
0.00106928
0.00110706
0.00115486
0.00121326
0.00128138
0.00135768
0.00146001
0.0014869
0.00145062
0.00135233
0.00124722
)
;

boundaryField
{
    floor
    {
        type            nutkWallFunction;
        Cmu             0.09;
        kappa           0.41;
        E               9.8;
        value           nonuniform List<scalar> 
29
(
0.000117953
5.73428e-05
7.32217e-05
7.06807e-05
6.79898e-05
6.57085e-05
6.34696e-05
6.07183e-05
5.79187e-05
5.53414e-05
5.29643e-05
5.07888e-05
4.8812e-05
4.70207e-05
4.5386e-05
4.38571e-05
4.23576e-05
4.07942e-05
4.05731e-05
3.78383e-05
3.78382e-05
5.26102e-05
6.33522e-05
7.09608e-05
0.000117953
5.73427e-05
9.52254e-05
0.000113417
0.000129525
)
;
    }
    ceiling
    {
        type            nutkWallFunction;
        Cmu             0.09;
        kappa           0.41;
        E               9.8;
        value           nonuniform List<scalar> 
43
(
0.000254587
0.000267425
0.000278456
0.000293401
0.000275348
0.000255858
0.000237021
0.000220121
0.000204026
0.000188927
0.000175912
0.000164635
0.00015435
0.000144677
0.000135014
0.000122469
0.00012025
0.000130444
0.000125844
0.000125048
0.000124501
0.000124142
0.000123859
0.000123557
0.000123261
0.000123109
0.000123314
0.000124131
0.000125852
0.000128828
0.000133229
0.000138771
0.000145508
0.000153321
0.000162018
0.000173596
0.000176625
0.000172539
0.000161411
0.00014941
0.000353346
0.00042125
0.000291368
)
;
    }
    sWall
    {
        type            nutkWallFunction;
        Cmu             0.09;
        kappa           0.41;
        E               9.8;
        value           uniform 0.000254657;
    }
    nWall
    {
        type            nutkWallFunction;
        Cmu             0.09;
        kappa           0.41;
        E               9.8;
        value           nonuniform List<scalar> 6(0.000114492 0.000120937 0.000143199 0.000155881 0.000158317 0.000149423);
    }
    sideWalls
    {
        type            empty;
    }
    glass1
    {
        type            nutkWallFunction;
        Cmu             0.09;
        kappa           0.41;
        E               9.8;
        value           nonuniform List<scalar> 9(9.73371e-05 0.000144558 0.000185671 0.000226709 0.000267789 0.000309267 0.000350037 0.000360199 0.000353832);
    }
    glass2
    {
        type            nutkWallFunction;
        Cmu             0.09;
        kappa           0.41;
        E               9.8;
        value           nonuniform List<scalar> 2(0.000206178 0.000188852);
    }
    sun
    {
        type            nutkWallFunction;
        Cmu             0.09;
        kappa           0.41;
        E               9.8;
        value           nonuniform List<scalar> 
14
(
9.73308e-05
0.000102137
0.000100956
0.000104337
0.000107256
0.00010975
0.000111928
0.000113905
0.000115801
0.000117536
0.000118728
0.000119237
0.000119065
0.000118533
)
;
    }
    heatsource1
    {
        type            nutkWallFunction;
        Cmu             0.09;
        kappa           0.41;
        E               9.8;
        value           nonuniform List<scalar> 3(8.64551e-05 0.000102238 0.000114485);
    }
    heatsource2
    {
        type            nutkWallFunction;
        Cmu             0.09;
        kappa           0.41;
        E               9.8;
        value           nonuniform List<scalar> 4(0.000122083 0.000109687 0.000109687 0.000135376);
    }
    Table_master
    {
        type            nutkWallFunction;
        Cmu             0.09;
        kappa           0.41;
        E               9.8;
        value           nonuniform List<scalar> 9(8.28198e-05 7.36404e-05 6.65533e-05 6.0994e-05 5.65386e-05 5.28967e-05 4.98837e-05 4.74096e-05 4.55159e-05);
    }
    Table_slave
    {
        type            nutkWallFunction;
        Cmu             0.09;
        kappa           0.41;
        E               9.8;
        value           nonuniform List<scalar> 9(9.15504e-05 8.67144e-05 8.46223e-05 8.34521e-05 8.21103e-05 7.9858e-05 7.67671e-05 7.33487e-05 6.90625e-05);
    }
    inlet
    {
        type            calculated;
        value           uniform 0.000100623;
    }
    outlet
    {
        type            calculated;
        value           nonuniform List<scalar> 2(0.00219755 0.0023171);
    }
}


// ************************************************************************* //
