/*--------------------------------*- C++ -*----------------------------------*\
  =========                 |
  \\      /  F ield         | OpenFOAM: The Open Source CFD Toolbox
   \\    /   O peration     | Website:  https://openfoam.org
    \\  /    A nd           | Version:  6
     \\/     M anipulation  |
\*---------------------------------------------------------------------------*/
FoamFile
{
    version     2.0;
    format      ascii;
    class       surfaceScalarField;
    location    "200";
    object      phi;
}
// * * * * * * * * * * * * * * * * * * * * * * * * * * * * * * * * * * * * * //

dimensions      [1 0 -1 0 0 0 0];

internalField   nonuniform List<scalar> 
852
(
-0.00368715
0.00375139
-0.00532608
0.0016387
-0.00616938
0.000843084
-0.00633571
0.000166105
-0.00579336
-0.000542569
-0.00463023
-0.00116335
-0.0031
-0.00153046
-0.00147168
-0.00162856
5.05014e-05
-0.00152243
0.00123133
-0.00118107
0.00202746
-0.000796387
0.0024293
-0.000402095
0.00239725
3.17869e-05
0.00178054
0.000616434
0.00178388
-0.00125353
0.00125761
-0.00139918
0.000145387
-0.000666831
-0.00073264
0.000309512
-0.000976632
0.00116196
-0.000852736
0.00179491
-0.000633217
0.00216266
-0.000368022
0.002339
-0.000176585
0.00244045
-0.000101688
0.0025097
-6.94876e-05
0.00255762
-4.8141e-05
0.00258957
-3.21713e-05
0.00260402
-1.46822e-05
0.00258564
1.81485e-05
0.00249574
8.96699e-05
0.00226795
0.000227538
0.00185639
0.000411303
0.00122304
0.000633084
0.0012278
-0.00261648
0.0065427
-0.00401639
0.00303839
-0.00479954
0.00162602
-0.0049262
0.000292552
-0.00436183
-0.00110714
-0.00328169
-0.00224369
-0.00197631
-0.00283605
-0.000673115
-0.00293198
0.000450462
-0.00264625
0.00135636
-0.00208721
0.00199894
-0.00143923
0.00237829
-0.0007817
0.00251229
-0.000102478
0.00249883
0.000629621
0.0029263
0.00135613
0.00150484
0.00142111
0.00150448
-0.000326026
0.00159659
0.000207979
-0.000388936
0.000920873
-0.00144584
0.00144975
-0.00150582
0.00189383
-0.00129713
0.00222659
-0.000966275
0.00230651
-0.000448235
0.00232388
-0.00019423
0.00234194
-0.000120009
0.00235676
-8.45538e-05
0.00236666
-5.82714e-05
0.00237324
-3.89754e-05
0.00237597
-1.76455e-05
0.00236753
2.63672e-05
0.00230402
0.000152942
0.0020391
0.000492205
0.00158344
0.000866709
0.000974556
0.00124169
0.00221603
-0.00180687
0.00861884
-0.00289315
0.00412445
-0.00348395
0.00221663
-0.00341019
0.000218594
-0.00268391
-0.0018336
-0.00163094
-0.00329684
-0.000538621
-0.00392856
0.000432228
-0.00390305
0.00121143
-0.00342569
0.00182405
-0.00270009
0.00226564
-0.00188108
0.00253761
-0.00105393
0.0026768
-0.000241926
0.00273914
0.000567004
0.00272695
0.00136804
0.00207278
0.002075
0.00357694
0.0016735
-5.63453e-05
0.0023373
-0.00105307
0.0024101
-0.00151896
0.00250063
-0.00159666
0.00261818
-0.00141499
0.00283052
-0.00117893
0.00238213
0.00218776
0.00206763
0.00198298
0.00192463
0.00188558
0.00186786
0.00189415
0.002047
0.00167347
0.000865484
0.00124945
0.00129046
0.000726052
0.00176482
0.00296392
-0.00125435
0.0102238
-0.00196129
0.00483118
-0.0021058
0.00236093
-0.00150196
-0.000385429
-0.000523761
-0.00281196
0.000421097
-0.00424185
0.00119381
-0.00470147
0.00177208
-0.00448153
0.00219366
-0.00384751
0.00248807
-0.00299475
0.0026724
-0.00206568
0.00276861
-0.00115041
0.0028158
-0.000289389
0.00286538
0.000517152
0.00298237
0.00125076
0.00326436
0.00179273
0.00476998
0.00207102
0.0039606
0.000826361
0.00397111
-6.71645e-05
0.00372412
-0.000806375
0.00340958
-0.00120471
0.00311481
-0.0013022
0.00286942
-0.00116991
0.00255135
-0.000861179
0.00286771
-0.000316826
0.00294918
-8.19403e-05
0.00293559
1.31329e-05
0.0028604
7.47479e-05
0.00272945
0.000130523
0.0025387
0.00019034
0.00227168
0.000266635
0.00189306
0.000378233
0.00132714
0.000565549
0.00117037
0.001022
0.000861758
0.0015988
0.000458076
0.00216822
0.00345136
-0.000932937
0.0115782
-0.00111209
0.00501012
-0.000206527
0.00145517
0.00109122
-0.00168333
0.00210639
-0.00382725
0.00274199
-0.00487758
0.00309135
-0.005051
0.00322464
-0.00461503
0.00320853
-0.00383165
0.0031068
-0.00289329
0.00296637
-0.00192552
0.0028241
-0.00100841
0.00271553
-0.000181104
0.00269791
0.000534501
0.00284914
0.00109925
0.00320346
0.00143812
0.00378857
0.00148563
0.00381414
0.000800501
0.00375214
-5.44288e-06
0.0034973
-0.000551811
0.00313831
-0.000846009
0.00275761
-0.000921783
0.00240717
-0.000819778
0.00212477
-0.000579085
0.00205342
-0.000245778
0.00198221
-1.10384e-05
0.00188418
0.000110874
0.0017817
0.000176948
0.00167798
0.000233976
0.00156293
0.000305133
0.00142117
0.000408149
0.0012377
0.000561463
0.00102167
0.000781345
0.000883064
0.00116035
0.000782687
0.00169891
0.000531303
0.00241932
0.000740138
0.00324224
-0.00112308
0.00186272
-0.00163453
0.000510902
-0.00157631
-0.000410081
0.0124806
0.000433536
0.0041663
0.00272821
-0.000839681
0.00431268
-0.0032679
0.00507371
-0.00458838
0.00524122
-0.00504522
0.0050041
-0.00481406
0.00452757
-0.00413873
0.00394723
-0.00325157
0.00336373
-0.00231009
0.00283966
-0.00140175
0.00240961
-0.000578652
0.00210178
0.000126421
0.00197386
0.000662137
0.00205296
0.00101987
0.0023023
0.00118851
0.00267414
0.00111352
0.00283982
0.000634559
0.00274009
9.40157e-05
0.00248422
-0.000296217
0.00214392
-0.000505995
0.00177811
-0.000556269
0.0014349
-0.00047687
0.00115735
-0.000301832
0.000985986
-7.47142e-05
0.000883049
9.16077e-05
0.000817993
0.000175646
0.000775775
0.000218891
0.000751208
0.000258277
0.000739048
0.000317031
0.000733275
0.000413665
0.000731535
0.000562947
0.00073691
0.000775716
0.000808085
0.00108891
0.00100887
0.00149785
0.0013298
0.0020981
0.0019987
0.00257304
0.00234577
0.00151535
0.00193727
0.000919082
0.000431584
0.00426658
0.00878593
0.00646078
0.00197189
0.00792504
-0.002304
0.00859683
-0.0039397
0.00842585
-0.00441747
0.00760751
-0.00422702
0.00643427
-0.00364104
0.00514074
-0.00284549
0.00389935
-0.00201049
0.00281259
-0.00122365
0.00191762
-0.00050712
0.00123599
0.00010265
0.000837084
0.000525026
0.000724618
0.000774316
0.00082266
0.000921558
0.00105142
0.000959489
0.00132278
0.000841894
0.00143587
0.000521196
0.00135362
0.000175997
0.00113606
-7.89428e-05
0.000841888
-0.000212123
0.000523051
-0.000237732
0.000224875
-0.000178997
-1.24875e-05
-6.47695e-05
-0.000151049
6.35505e-05
-0.000202469
0.000142737
-0.000202913
0.000175805
-0.000171644
0.000187343
-0.000112199
0.000198556
-2.24209e-05
0.00022698
0.000100785
0.000290186
0.000260338
0.000403122
0.000457643
0.00057814
0.000721629
0.000824656
0.00110755
0.00111165
0.00168067
0.0015247
0.00257752
0.00167589
0.00326615
0.000826425
0.00338617
0.000798747
0.00389579
0.0138958
-0.00437854
0.0165807
-0.000712916
0.0149008
-0.000623852
0.012742
-0.00178086
0.0105103
-0.00218585
0.00818904
-0.00190605
0.00594957
-0.00140193
0.00392699
-0.000823287
0.00221397
-0.000297853
0.0008462
0.000143734
-0.000108044
0.000446747
-0.000609795
0.000604075
-0.000763861
0.000678789
-0.000728667
0.000738833
-0.000577284
0.000769896
-0.000366653
0.000748584
-0.000172113
0.00064708
-0.000105957
0.00045476
-0.000181999
0.000251747
-0.000358869
9.76222e-05
-0.000587732
1.64312e-05
-0.000827657
1.88227e-06
-0.00103715
3.01863e-05
-0.0011794
7.71823e-05
-0.00123568
0.000119524
-0.00122991
0.000136667
-0.00118557
0.000131176
-0.00111196
0.00011344
-0.00100905
9.53612e-05
-0.000872532
9.01674e-05
-0.00069523
0.000112594
-0.000468755
0.000176358
-0.000183716
0.000292813
0.000166875
0.000473777
0.00057493
0.000703306
0.00112342
0.000975932
0.00178555
0.00101347
0.0020053
0.000606397
0.00105268
0.00175107
0.00527509
-0.00326281
-0.00391456
0.00119088
-0.00572954
0.0026539
-0.00324506
0.00210647
-0.00163941
0.00109268
-0.000893051
-2.11417e-05
-0.000288744
-0.00102253
0.000177633
-0.00174171
0.000420914
-0.0021488
0.000550455
-0.00231869
0.000616285
-0.00234767
0.000632737
-0.00229032
0.000621118
-0.00216433
0.000612551
-0.00199695
0.00060221
-0.00182286
0.000574204
-0.00168833
0.000512256
-0.00164607
0.000412199
-0.00169926
0.000304627
-0.00181893
0.000216973
-0.00196471
0.000161893
-0.00210052
0.000137374
-0.00220342
0.00013277
-0.00226327
0.000136724
-0.00228354
0.00013948
-0.00228238
0.000135205
-0.00227843
0.000126916
-0.00228733
0.000122026
-0.00232272
0.000130449
-0.00239786
0.000164993
-0.00252793
0.000242365
-0.00273621
0.000384328
-0.00306294
0.000619249
-0.00356887
0.000979411
-0.00434914
0.00148328
-0.00546887
0.00209538
-0.00705242
0.00259673
-0.0090198
0.00257349
-0.00847455
0.00120553
-0.00284857
0.0014332
-0.000729644
-0.00129377
-0.000519347
-0.00257812
-0.00035586
-0.0033959
-7.5882e-05
-0.00388518
0.000200027
-0.00409235
0.000384379
-0.00414592
0.000474094
-0.0041027
0.000506869
-0.0039917
0.000504934
-0.00384402
0.000484719
-0.00368362
0.000460389
-0.00351523
0.000443842
-0.00334653
0.000433194
-0.00319223
0.000419586
-0.00307313
0.000392838
-0.00301001
0.000348759
-0.00300262
0.000296903
-0.00303499
0.000249019
-0.00308599
0.000212564
-0.00313768
0.00018874
-0.0031796
0.000174362
-0.00320825
0.000165047
-0.00322597
0.000156874
-0.00323903
0.000147942
-0.00325256
0.000140123
-0.00326951
0.000138651
-0.00329161
0.000152223
-0.0033202
0.00019326
-0.00335641
0.00027825
-0.00340158
0.000429186
-0.00345937
0.000676723
-0.00353701
0.00105674
-0.00363169
0.00157766
-0.00368221
0.00214559
-0.00359421
0.00250842
-0.00319027
0.00216924
-0.00174357
-0.0002415
-0.00450499
-0.00414459
0.00343422
-0.00530532
0.000640751
-0.00583756
0.000175828
-0.00607147
0.000157554
-0.00608003
0.00020815
-0.00595362
0.000257566
-0.0057627
0.000282792
-0.00554326
0.000287061
-0.00531732
0.000278634
-0.00509868
0.000265719
-0.00489383
0.000255201
-0.00470137
0.000251036
-0.00452037
0.000251854
-0.00435409
0.000252964
-0.00421004
0.000248447
-0.0040963
0.000234682
-0.00401308
0.000213336
-0.00395289
0.000188489
-0.00390464
0.000163963
-0.00385806
0.00014182
-0.00380655
0.000122503
-0.00374749
0.000105644
-0.00368166
9.0697e-05
-0.00361186
7.78035e-05
-0.00354069
6.861e-05
-0.00346893
6.65445e-05
-0.00339403
7.69904e-05
-0.00330838
0.000107267
-0.00319708
0.000166614
-0.00303554
0.000267318
-0.00278844
0.000429292
-0.00241793
0.000685906
-0.00190733
0.00106673
-0.00123334
0.00147129
-0.000168029
0.00144279
0.00129637
0.000704514
0.00171801
-0.000663482
-0.00269067
-0.0090074
-0.0122715
-0.00882095
-0.00816729
-0.00797954
-0.0078105
-0.00759118
-0.00732276
-0.00702945
-0.00673227
-0.00644397
-0.00616906
-0.00590517
-0.00564594
-0.00538633
-0.00512601
-0.00487048
-0.00462886
-0.00440855
-0.00421288
-0.00404143
-0.00389172
-0.00376091
-0.00364653
-0.00354665
-0.00345924
-0.00338061
-0.00330368
-0.00321596
-0.0030977
-0.00291989
-0.00264127
-0.00220067
-0.00150356
-0.000425892
0.00105577
0.00250826
0.00322195
0.00256751
)
;

boundaryField
{
    floor
    {
        type            calculated;
        value           nonuniform List<scalar> 
29
(
0
0
0
0
0
0
0
0
0
0
0
0
0
0
0
0
0
0
0
0
-5.0378e-06
-1.39643e-05
-2.21234e-05
-2.96605e-05
-3.62539e-06
-4.3435e-06
-1.32266e-05
-2.09171e-05
-1.72822e-05
)
;
    }
    ceiling
    {
        type            calculated;
        value           nonuniform List<scalar> 
43
(
-1.72582e-05
-1.71985e-05
-1.68877e-05
-1.33881e-05
-1.23617e-05
-1.19086e-05
-1.15783e-05
-1.12561e-05
-1.09006e-05
-1.04951e-05
-1.0041e-05
-9.55302e-06
-9.05189e-06
-8.56109e-06
-8.10583e-06
-7.71726e-06
-7.43442e-06
-7.29831e-06
-7.33426e-06
-7.5333e-06
-7.85416e-06
-8.24593e-06
-8.67039e-06
-9.10661e-06
-9.54302e-06
-9.97009e-06
-1.03773e-05
-1.07526e-05
-1.10823e-05
-1.13518e-05
-1.15464e-05
-1.16518e-05
-1.16538e-05
-1.15363e-05
-1.12767e-05
-1.07077e-05
-1.00275e-05
-9.52036e-06
-9.38064e-06
-8.36665e-06
-4.05797e-05
-6.12221e-05
-1.98899e-05
)
;
    }
    sWall
    {
        type            calculated;
        value           uniform -0.000216697;
    }
    nWall
    {
        type            calculated;
        value           nonuniform List<scalar> 6(-5.876e-05 -7.09473e-05 -7.83502e-05 -8.7506e-05 -9.66588e-05 -0.000115159);
    }
    sideWalls
    {
        type            empty;
        value           nonuniform 0();
    }
    glass1
    {
        type            calculated;
        value           nonuniform List<scalar> 9(-6.44605e-05 -0.000175044 -0.000269483 -0.000350797 -0.000421702 -0.000492536 -0.000572071 -0.000731289 -0.00107506);
    }
    glass2
    {
        type            calculated;
        value           nonuniform List<scalar> 2(-0.000326906 -0.000351181);
    }
    sun
    {
        type            calculated;
        value           uniform 0;
    }
    heatsource1
    {
        type            calculated;
        value           nonuniform List<scalar> 3(2.05607e-07 2.05429e-07 2.05506e-07);
    }
    heatsource2
    {
        type            calculated;
        value           nonuniform List<scalar> 4(5.18314e-08 5.20178e-08 0 0);
    }
    Table_master
    {
        type            calculated;
        value           nonuniform List<scalar> 9(-1.54706e-07 -1.54907e-07 -1.54952e-07 -1.5497e-07 -1.54974e-07 -1.54967e-07 -1.54951e-07 -1.54918e-07 -1.54833e-07);
    }
    Table_slave
    {
        type            calculated;
        value           nonuniform List<scalar> 9(1.54412e-07 1.54424e-07 1.54379e-07 1.54341e-07 1.54328e-07 1.54337e-07 1.54371e-07 1.54434e-07 1.54538e-07);
    }
    inlet
    {
        type            calculated;
        value           uniform -0.00643345;
    }
    outlet
    {
        type            calculated;
        value           nonuniform List<scalar> 2(0.00924082 0.00328078);
    }
}


// ************************************************************************* //
