/*--------------------------------*- C++ -*----------------------------------*=========                 |
  \      /  F ield         | OpenFOAM: The Open Source CFD Toolbox
   \    /   O peration     | Website:  https://openfoam.org
    \  /    A nd           | Version:  6
     \/     M anipulation  |
\*---------------------------------------------------------------------------*/
FoamFile
{
    version     2.0;
    format      ascii;
    class       volScalarField;
    location    "3000";
    object      PPD;
}
// * * * * * * * * * * * * * * * * * * * * * * * * * * * * * * * * * * * * * //

dimensions      [0 0 0 0 0 0 0];

internalField   nonuniform List<scalar> 
459
(
59.2436409779181
47.49444219935956
46.11674165378081
44.86519829496176
44.04509653745004
43.575847551848774
43.43399701722272
43.61143565040028
44.12704812622138
45.042616350671516
46.41342365487817
48.33088925706795
50.887451391719935
52.90088859433358
53.135059561615215
56.646506116549645
55.94496482141956
55.68497292738698
55.76297839378675
55.91896911396587
56.04893941032603
56.15809593759706
55.907701278756456
55.89211615179301
55.93345182233766
56.00656458652302
56.12938084424825
56.25665702127567
56.432045340658725
56.708493850609024
57.203808806247956
57.55468090285261
57.76202508943854
58.40930169216261
57.18541427913474
48.654025311508676
48.188538440610586
47.06660395027613
46.38365913817899
46.01500634274146
45.8914729282296
45.99955620556502
46.24506227536452
46.6939724516586
47.512173768228145
48.785845324167354
50.64372434445117
52.432659550399705
52.45866755466878
52.48467617002782
52.48467617002782
54.66541897784539
55.42491047939617
55.21681695244909
55.29485616044272
55.11322120792489
54.881024399452
54.80358995245436
54.8330608084669
54.91852677778452
54.9611494491588
54.99515891935999
55.00822785031695
55.054642682421566
55.112180500364545
55.247179552191476
55.684723425982305
56.516645498488415
56.82826426067446
56.37060045218909
59.452198396899284
48.811038390628724
50.13137429789846
49.61769937089677
49.45370596961871
49.434864132052276
49.5154973285654
49.56193341564727
49.304450722473966
48.92888924968581
48.7534063575491
49.05587446867933
50.042726157886186
51.726668749735495
52.30262906061905
52.432659550399705
52.51068538603588
49.7918186038847
52.01306572026126
52.695456239535964
53.171320965215834
53.70990625948351
54.10077641073738
54.29546673133326
54.7355760048008
55.0425783738292
55.18483487591866
55.24827031766478
55.28090543344582
55.30839595410921
55.26358284247806
55.0394370103393
55.15244224402521
56.13967962124633
55.63583718649098
53.01543578610766
63.517029341095075
49.10963837093216
51.64221791021153
52.19519647179724
53.173187943565175
54.01783476264431
54.694758118043666
54.42016862391346
53.01261296768385
51.00902754493898
49.366466688794496
48.505887962534814
48.68283278480407
49.80416664294529
51.511805952951356
52.48467617002782
51.68195701970478
49.49561668908021
49.449824394923844
50.93416413555697
52.35570134518288
53.523566004546936
54.531221559296526
55.29002898319501
55.58091617243776
55.536540119976756
55.53952270511636
55.60001096771767
55.692247633332116
55.884469914783374
56.276580441617085
56.90280645813836
58.10547298188331
57.75069433341254
56.977151714547894
54.552438701893394
50.59656268325376
68.19736812501421
50.22901832074631
53.14067617544359
54.723461226614255
57.32683010556133
60.28000498664157
61.573868242802995
59.059423140980535
55.17405629307909
51.40640911107567
48.74548891727939
47.27680252606755
47.11970711349987
48.02936567178527
49.5966003764823
51.05832346113193
51.41988068646281
51.25265529445021
51.733218899429055
53.056741070845106
54.65873885663414
56.14290575432808
57.38899583472554
58.20229045612124
58.66789907243961
59.055425426414175
59.12789542283706
59.13695164811476
59.09851902625915
59.01520875027978
58.99486073562381
59.02853667154859
59.106145166445415
58.33420350391803
56.91177192869152
53.5867632218495
53.245518360750424
60.2921267600262
59.54561785126128
50.73223035738744
72.65396544192353
52.56048672460256
56.0009893642423
57.63373494138885
61.34370314912103
62.8730291758801
62.21840777432846
57.94402682740143
53.71289235030289
49.857027426624605
47.01318292429232
45.56986582657746
45.58227700321659
46.832352774504294
48.855170299976265
51.041260025296864
52.75329724398616
53.92138164440869
55.23961420879553
56.880184692205425
57.81384563198088
58.59033987513394
59.23611026489919
59.75174757335459
60.163566920419655
60.497684583250944
60.78004030077121
60.95954266013593
61.03642858539446
60.9851742414464
60.805692128306404
60.523367146567004
60.13784714837922
58.92960600159355
57.055265880234344
53.6013670100693
53.498489110363906
54.2732710752839
54.201881362051786
54.875583182906404
76.85907548167611
57.735892540771204
64.16060686213183
62.784191469338204
62.59842703206086
61.18529169025925
58.29097484014998
54.318629737759466
50.02103736099441
46.336874674558935
44.02611313636438
43.38085033543274
44.334890530062324
46.57090575326662
49.66283106205598
53.04313613860551
55.29485616044272
56.568592974622085
57.73611245446159
58.74544068706738
59.597153715604804
60.2921267600262
60.85698719365109
61.26692546713635
61.59942635511941
61.854829832458805
62.03341620487863
62.10990270775221
62.10990270775221
61.98240827449633
61.67608146478722
61.29252109810247
60.805692128306404
60.18928410564304
58.20438610538859
54.975005347625284
53.699777632911186
53.02034426246918
51.653851772693415
56.355524280565504
82.44448618846093
74.21181102337262
72.07047167864765
67.0632272238625
63.99079166708429
59.57907012108084
53.9277738671237
48.138709969190785
43.45045275085311
40.657901354950894
39.9578509456675
41.3021037717996
44.252707976356845
48.339227455158536
53.23308757658956
55.5549498497689
57.3472416676152
58.77128393376599
59.880509554709995
60.72872811050511
61.394872846323125
61.905871203428156
62.28825119544098
62.593591472872404
62.79686316324329
62.94916153186325
63.02525993944121
63.02525993944121
62.94916153186325
62.771467063554724
62.51730455090329
62.10990270775221
61.62498127014169
61.08767109844131
60.497684583250944
59.906254594483904
58.631684440327504
57.90064544673322
54.666781199171034
50.21361657505526
89.20967601798097
84.89915400505004
78.28255228096637
69.744112038042
58.798972441296506
47.1039514108247
38.206046468025896
33.12852409696235
31.533588793487496
32.867284562856454
36.502285116068016
41.936694955393186
48.43842465364632
53.00496070337294
56.02294702081737
58.461036273666934
60.00920986798138
61.06205132622939
61.829304182495584
62.44098533564149
62.89841038191513
63.052735379269585
63.04948754793916
63.01617255812881
62.929746563489104
62.78542639230419
62.55867511242188
62.2346353536793
61.82566409378145
61.33561576556759
60.75521871019776
60.11299122068567
59.501303754853645
58.820801827298716
58.04969168248461
57.33699306241446
56.82676701758395
56.45640012063803
55.751485533634764
54.234625871277274
98.99825547060257
68.89619668478049
32.350113236499425
8.21287873003125
5.58208109777955
12.585518189411985
24.168272618560295
35.985232632344605
44.34913192914055
51.08134321462391
55.13877313626736
57.9174675026015
59.100525567398364
59.997276563557115
60.685854903747014
61.2017950637553
61.52727403165159
61.71690921421839
61.8131779690481
61.8241593569277
61.760609908976974
61.644180913646935
61.46361044458181
61.26069191654254
61.03197351035771
60.75642247057294
60.498880398587175
60.25133160109668
60.033107286811855
59.90039881954193
59.80186245529732
59.7634223217015
59.75684121992463
59.84219235119922
60.32278258526687
61.95979506586974
67.8361721182667
59.67514466704601
92.76618696351063
26.241901706554884
5.035128291512166
11.896861430816372
22.078531918663742
30.615448678779074
38.00559046991016
44.15640552492174
49.09857391001136
52.83829795770726
55.37889524680707
57.168295605113215
58.42465436627361
59.35471740376346
59.976571413976465
60.41100500399372
60.710454423941016
60.88316263963931
60.99317638788824
61.08102229867421
61.113672964938736
61.107270381928785
61.085452440385204
61.047108531869654
60.993815909269806
60.930977906572714
60.87032680069711
60.83354554040233
60.849386486255284
61.016622617572516
61.35738912166506
61.92182710729477
62.56618257849507
63.180415327190616
63.94396980888485
67.14993340998663
61.80422091537354
66.42413066278411
20.50132802665776
25.969880538202133
21.2151490419553
7.897319105413118
21.60568152625683
30.62548921431926
36.997906692768865
42.26730168539554
46.658144781122076
50.29182286395781
53.27573343844878
55.561166040885006
57.22720982661227
58.386093435137845
59.14517043458503
59.59748304831188
59.85291939577041
59.97377237657731
59.99241561950567
59.990499314774304
59.96038666809097
59.93917378727373
59.95106516575512
59.983155455870076
60.007102146349496
60.078401244695634
60.14813129553635
60.25399810495251
60.440851546225964
60.67665420622881
61.04531096854989
61.64641021207376
62.64833717296507
64.43524143107138
66.01320131839546
66.26126502321615
66.50881105909947
62.634743109705425
62.866402705255176
57.6330217654312
)
;

boundaryField
{
    ".*"
    {
        type            zeroGradient;
    }
}


// ************************************************************************* //
