// -*- C++ -*-
// File generated by PyFoam - sorry for the ugliness

FoamFile
{
 version 2.0;
 format ascii;
 class volScalarField;
 location "100";
 object T;
}

dimensions [ 0 0 0 1 0 0 0 ];

internalField nonuniform List<scalar> 459
(
  302.559
  302.291
  302.24
  302.186
  302.182
  302.208
  302.238
  302.269
  302.3
  302.332
  302.363
  302.396
  302.431
  302.472
  302.528
  303.496
  303.415
  303.356
  303.326
  303.346
  303.382
  303.418
  303.455
  303.491
  303.527
  303.563
  303.599
  303.635
  303.671
  303.709
  303.747
  303.791
  303.846
  303.934
  302.726
  302.338
  302.24
  302.126
  302.113
  302.141
  302.181
  302.222
  302.261
  302.296
  302.333
  302.372
  302.412
  302.456
  302.509
  302.544
  302.604
  303.52
  303.421
  303.258
  303.232
  303.265
  303.316
  303.358
  303.4
  303.442
  303.484
  303.526
  303.568
  303.611
  303.654
  303.697
  303.742
  303.792
  303.853
  303.945
  302.923
  302.516
  302.232
  302.088
  302.067
  302.109
  302.172
  302.231
  302.279
  302.32
  302.359
  302.397
  302.434
  302.471
  302.511
  302.55
  302.601
  303.521
  303.286
  303.158
  303.151
  303.216
  303.3
  303.335
  303.379
  303.426
  303.475
  303.526
  303.579
  303.633
  303.687
  303.738
  303.786
  303.832
  303.884
  303.965
  303.228
  302.674
  302.209
  302.016
  302.023
  302.115
  302.222
  302.311
  302.373
  302.423
  302.46
  302.486
  302.506
  302.525
  302.546
  302.571
  302.605
  302.638
  302.848
  302.885
  302.95
  303.068
  303.216
  303.356
  303.473
  303.56
  303.633
  303.704
  303.773
  303.84
  303.907
  303.975
  304.045
  303.998
  303.956
  303.947
  303.992
  303.545
  302.422
  301.908
  301.842
  302.004
  302.214
  302.396
  302.523
  302.607
  302.644
  302.644
  302.63
  302.616
  302.608
  302.607
  302.616
  302.634
  302.665
  302.734
  302.821
  302.971
  303.167
  303.37
  303.55
  303.699
  303.812
  303.908
  303.986
  304.049
  304.101
  304.145
  304.179
  304.201
  304.154
  304.073
  304.021
  304.024
  304.091
  304.267
  304.613
  302.044
  301.348
  301.221
  301.71
  302.24
  302.601
  302.827
  302.942
  302.94
  302.878
  302.817
  302.767
  302.729
  302.702
  302.688
  302.688
  302.705
  302.755
  302.859
  303.025
  303.243
  303.475
  303.688
  303.863
  304.001
  304.109
  304.183
  304.239
  304.283
  304.317
  304.341
  304.352
  304.344
  304.284
  304.191
  304.115
  304.088
  304.135
  304.229
  304.39
  301.337
  300.168
  300.803
  302.689
  303.303
  303.354
  303.304
  303.222
  303.133
  303.047
  302.971
  302.911
  302.864
  302.833
  302.82
  302.834
  302.887
  303.011
  303.211
  303.45
  303.689
  303.909
  304.091
  304.232
  304.338
  304.402
  304.442
  304.473
  304.495
  304.51
  304.516
  304.509
  304.484
  304.421
  304.331
  304.248
  304.201
  304.23
  304.283
  304.382
  300.872
  299.746
  300.575
  303.394
  303.704
  303.657
  303.553
  303.443
  303.339
  303.254
  303.185
  303.131
  303.096
  303.082
  303.096
  303.152
  303.275
  303.482
  303.734
  303.988
  304.205
  304.378
  304.503
  304.584
  304.63
  304.656
  304.672
  304.683
  304.689
  304.689
  304.682
  304.666
  304.637
  304.59
  304.519
  304.44
  304.397
  304.436
  304.469
  304.544
  300.32
  298.743
  298.605
  303.589
  303.982
  303.93
  303.83
  303.732
  303.644
  303.576
  303.527
  303.497
  303.492
  303.514
  303.574
  303.681
  303.846
  304.061
  304.288
  304.491
  304.648
  304.758
  304.825
  304.862
  304.879
  304.886
  304.887
  304.886
  304.881
  304.873
  304.861
  304.844
  304.821
  304.795
  304.773
  304.765
  304.785
  304.822
  304.849
  304.942
  294.787
  303.689
  304.259
  304.243
  304.173
  304.107
  304.052
  304.011
  303.99
  303.992
  304.018
  304.073
  304.161
  304.284
  304.438
  304.609
  304.771
  304.905
  305.001
  305.062
  305.095
  305.11
  305.112
  305.109
  305.102
  305.093
  305.08
  305.063
  305.04
  305.01
  304.977
  304.943
  304.916
  304.905
  304.916
  304.956
  305.034
  305.421
  303.964
  304.529
  304.617
  304.602
  304.57
  304.542
  304.521
  304.511
  304.517
  304.542
  304.586
  304.651
  304.737
  304.84
  304.953
  305.066
  305.165
  305.241
  305.293
  305.323
  305.337
  305.34
  305.336
  305.327
  305.315
  305.298
  305.277
  305.25
  305.217
  305.178
  305.136
  305.093
  305.056
  305.028
  305.019
  305.063
  305.194
  305.401
  304.855
  304.785
  304.762
  305.031
  305.073
  305.077
  305.081
  305.088
  305.098
  305.112
  305.133
  305.165
  305.205
  305.255
  305.311
  305.37
  305.428
  305.48
  305.522
  305.552
  305.57
  305.578
  305.578
  305.573
  305.563
  305.55
  305.533
  305.512
  305.486
  305.457
  305.422
  305.384
  305.342
  305.299
  305.257
  305.224
  305.215
  305.294
  305.474
  305.759
)
;

boundaryField
{
  floor
  {
    type wallHeatTransfer;
    Tinf uniform 305.2;
    alphaWall uniform 0.24;
    value nonuniform List<scalar> 29
(
  302.796
  303.754
  303.66
  303.587
  303.543
  303.55
  303.582
  303.623
  303.667
  303.71
  303.752
  303.793
  303.832
  303.871
  303.91
  303.949
  303.988
  304.032
  304.087
  304.174
  304.174
  304.173
  304.187
  304.206
  302.796
  303.754
  303.779
  303.787
  302.898
)
;
  }
  ceiling
  {
    type wallHeatTransfer;
    Tinf uniform 303.2;
    alphaWall uniform 0.24;
    value nonuniform List<scalar> 43
(
  304.723
  304.663
  304.645
  304.885
  304.917
  304.921
  304.926
  304.935
  304.946
  304.961
  304.983
  305.013
  305.052
  305.098
  305.15
  305.204
  305.256
  305.301
  305.336
  305.359
  305.37
  305.373
  305.369
  305.36
  305.348
  305.332
  305.313
  305.291
  305.265
  305.235
  305.201
  305.163
  305.122
  305.081
  305.042
  305.011
  305.003
  305.07
  305.23
  305.483
  300.475
  298.976
  303.918
)
;
  }
  sWall
  {
    type wallHeatTransfer;
    Tinf uniform 315.2;
    alphaWall uniform 0.36;
    value uniform 306.051;
  }
  nWall
  {
    type wallHeatTransfer;
    Tinf uniform 307.2;
    alphaWall uniform 0.36;
    value nonuniform List<scalar> 6
(
  305.18
  304.921
  304.871
  305.674
  305.641
  305.982
)
;
  }
  sideWalls
  {
    type empty;
  }
  glass1
  {
    type wallHeatTransfer;
    Tinf uniform 315.2;
    alphaWall uniform 4.3;
    value nonuniform List<scalar> 9
(
  310.079
  309.88
  309.853
  310.031
  310.063
  308.258
  307.719
  307.644
  307.915
)
;
  }
  glass2
  {
    type wallHeatTransfer;
    Tinf uniform 307.2;
    alphaWall uniform 4.3;
    value nonuniform List<scalar> 2
(
  306.345
  306.456
)
;
  }
  sun
  {
    type wallHeatTransfer;
    Tinf uniform 305.2;
    alphaWall uniform 0.24;
    value nonuniform List<scalar> 14
(
  302.755
  302.487
  302.424
  302.369
  302.371
  302.403
  302.44
  302.477
  302.516
  302.555
  302.593
  302.633
  302.676
  302.727
)
;
  }
  heatsource1
  {
    type fixedGradient;
    gradient uniform 0;
  }
  heatsource2
  {
    type fixedGradient;
    gradient uniform 0;
  }
  Table_master
  {
    type zeroGradient;
  }
  Table_slave
  {
    type zeroGradient;
  }
  inlet
  {
    type fixedValue;
    value uniform 290.15;
  }
  outlet
  {
    type zeroGradient;
  }
} 	// ************************************************************************* //

