/*--------------------------------*- C++ -*----------------------------------*\
  =========                 |
  \\      /  F ield         | OpenFOAM: The Open Source CFD Toolbox
   \\    /   O peration     | Website:  https://openfoam.org
    \\  /    A nd           | Version:  6
     \\/     M anipulation  |
\*---------------------------------------------------------------------------*/
FoamFile
{
    version     2.0;
    format      ascii;
    class       volScalarField;
    location    "600";
    object      alphat;
}
// * * * * * * * * * * * * * * * * * * * * * * * * * * * * * * * * * * * * * //

dimensions      [1 -1 -1 0 0 0 0];

internalField   nonuniform List<scalar> 
459
(
0.00123643
0.00135589
0.00138944
0.00146108
0.00152695
0.00158843
0.00164838
0.00170923
0.00175401
0.00177656
0.00177156
0.00173625
0.00167157
0.00158552
0.0014926
0.000521026
0.000618952
0.00068049
0.00064031
0.00057276
0.000502714
0.000447683
0.000405356
0.000372012
0.000343831
0.000318469
0.00029554
0.0002766
0.000264004
0.00025846
0.000257781
0.000319774
0.000560755
0.000446231
0.0016815
0.00401452
0.00386785
0.00454662
0.00521923
0.00589836
0.00651249
0.00696561
0.00737122
0.00769507
0.00789115
0.0079095
0.00766833
0.00696281
0.00511045
0.00152178
0.000943417
0.000576079
0.00110463
0.00143867
0.0016318
0.00168389
0.00161828
0.00136166
0.00118991
0.00107038
0.000975855
0.000903948
0.000858612
0.000841986
0.000851967
0.0008844
0.000918548
0.000872676
0.00132616
0.000575224
0.00205346
0.0054451
0.00474519
0.00604033
0.00673878
0.00728784
0.00773025
0.00807584
0.00843374
0.00878557
0.00908733
0.00929316
0.00934909
0.00917654
0.00859161
0.00678176
0.00148185
0.00118572
0.00156969
0.00183407
0.00201157
0.00207574
0.00199458
0.000800902
0.000697829
0.000620438
0.000561404
0.000516275
0.000481853
0.000455656
0.000435854
0.000422069
0.000477052
0.000562833
0.00106767
0.00066252
0.00241623
0.00700792
0.00469497
0.00635213
0.00700393
0.00731008
0.00753746
0.00776966
0.00809825
0.00848168
0.00886852
0.00921426
0.00946423
0.0095497
0.00941609
0.00880705
0.00680004
0.00180433
0.002106
0.00250365
0.00280157
0.00295778
0.00298787
0.00277497
0.000978923
0.000906984
0.000859161
0.000826058
0.00079807
0.000766195
0.000731965
0.000692203
0.000643102
0.0006129
0.000703179
0.00143503
0.000695877
0.00279348
0.00909345
0.00519355
0.00603269
0.00687759
0.00707677
0.0071382
0.00734752
0.0076881
0.00810137
0.0085424
0.00896266
0.00928233
0.0094292
0.00936359
0.00903003
0.00826152
0.00673552
0.00604043
0.00563239
0.00532847
0.00509284
0.0049404
0.00480707
0.00436333
0.00429586
0.0042773
0.00422796
0.00409716
0.00384823
0.00340027
0.00282585
0.00219442
0.00161463
0.0011791
0.0011854
0.00131359
0.000798222
0.000910439
0.00104847
0.00319937
0.0114146
0.00743048
0.00606132
0.00663594
0.00704142
0.00710279
0.00732374
0.00759865
0.00797502
0.00844281
0.00891927
0.00928702
0.0094423
0.00933468
0.0089778
0.00844333
0.00782319
0.007343
0.00697473
0.00668892
0.00651307
0.00646338
0.00644058
0.00636506
0.00629756
0.00612796
0.00586149
0.00551309
0.00510461
0.00463399
0.00405185
0.00336642
0.00264117
0.00198027
0.00146438
0.00145702
0.00134008
0.00177887
0.00113153
0.00357148
0.0130786
0.0107247
0.00834081
0.00796667
0.00787276
0.00768505
0.00762405
0.00777689
0.00815446
0.00868323
0.00922155
0.00960896
0.00972498
0.00952563
0.00906167
0.00849446
0.00801274
0.00771521
0.00753282
0.00742271
0.00735576
0.00726183
0.00713389
0.00695824
0.00670955
0.00633373
0.00589268
0.0054496
0.00505029
0.0047094
0.00439799
0.00393164
0.00335403
0.0028087
0.00246813
0.00243445
0.00252492
0.00255342
0.00145171
0.0036405
0.0115927
0.0104133
0.00956245
0.00883885
0.00814336
0.0077207
0.00768569
0.00802846
0.00864509
0.00935931
0.00996223
0.0102771
0.0102188
0.009796
0.0091114
0.00841758
0.00796002
0.00784098
0.00771689
0.00751118
0.00726285
0.00697227
0.00665342
0.00630281
0.00590522
0.00547587
0.00509288
0.00480943
0.00463844
0.00456769
0.00457479
0.00457664
0.00444532
0.00444114
0.00479398
0.0054865
0.00584581
0.00599139
0.00189789
0.00354384
0.00420253
0.00459353
0.00469282
0.004944
0.00550637
0.00639897
0.00755695
0.00882403
0.00999076
0.0108516
0.0112451
0.0111091
0.0105214
0.00961343
0.00859335
0.00787795
0.0074862
0.00727058
0.00701141
0.00664908
0.00622499
0.00578147
0.0053442
0.00492829
0.00456465
0.00428356
0.00408893
0.00397628
0.00391711
0.00388244
0.00385529
0.00383278
0.00381354
0.00377487
0.0036618
0.00340218
0.00302773
0.00270727
0.00173889
0.00159151
0.00416656
0.00778213
0.0101523
0.0117611
0.0127781
0.0132414
0.0131998
0.0127282
0.01187
0.0106905
0.00931164
0.00801174
0.00705671
0.00654573
0.00625708
0.0059703
0.00558956
0.00515037
0.00471435
0.00431719
0.00397721
0.00371221
0.00354212
0.00347405
0.00347956
0.00353165
0.00361393
0.00370768
0.00380407
0.00388615
0.0039339
0.00392726
0.0038299
0.00360907
0.00329106
0.00286774
0.00145393
0.00245705
0.00791024
0.0110507
0.0120183
0.0124227
0.0123703
0.0118722
0.0110089
0.00989945
0.00865963
0.00742252
0.0063028
0.00544447
0.00489163
0.00453906
0.00422689
0.00390141
0.00358382
0.00330555
0.00307968
0.00290668
0.00278642
0.00272196
0.00271611
0.00276666
0.0028666
0.00300414
0.00317502
0.00336952
0.00357711
0.00377981
0.00395333
0.00408428
0.00411788
0.00400703
0.00386406
0.00340837
0.00147777
0.00222396
0.00236734
0.00246787
0.00267996
0.00261176
0.00254343
0.00247601
0.00236151
0.00219801
0.00199704
0.00177072
0.0015328
0.00130551
0.00111373
0.000969715
0.000870158
0.000804069
0.000760781
0.000732715
0.000715027
0.000704722
0.000699943
0.000699726
0.000703939
0.000713256
0.000729194
0.000754149
0.000791252
0.000843764
0.000911704
0.000995862
0.00109336
0.00120151
0.00131789
0.00146306
0.0015432
0.0015642
0.00149812
0.00139896
0.00127625
)
;

boundaryField
{
    floor
    {
        type            compressible::alphatWallFunction;
        Prt             0.85;
        value           nonuniform List<scalar> 
29
(
0.000209976
7.24376e-05
8.71925e-05
9.63148e-05
9.03684e-05
8.02736e-05
6.96477e-05
6.11682e-05
5.45549e-05
4.92816e-05
4.47758e-05
4.06784e-05
3.69361e-05
3.38148e-05
3.17219e-05
3.07946e-05
3.06728e-05
4.08491e-05
7.84142e-05
6.0888e-05
6.08872e-05
8.0614e-05
9.36385e-05
9.85585e-05
0.000209973
7.24367e-05
8.07701e-05
0.000168171
0.000251448
)
;
    }
    ceiling
    {
        type            compressible::alphatWallFunction;
        Prt             0.85;
        value           nonuniform List<scalar> 
43
(
0.000305936
0.000324332
0.000337163
0.000364217
0.000355657
0.000347022
0.000338471
0.000323872
0.000302884
0.000276845
0.000247173
0.00021552
0.000184758
0.000158326
0.000138132
0.000123972
0.000114471
0.000108199
0.000104112
0.000101528
0.00010002
9.93209e-05
9.92914e-05
9.9912e-05
0.00010128
0.000103615
0.000107256
0.000112642
0.000120209
0.000129924
0.000141839
0.000155499
0.000170491
0.000186455
0.00020615
0.00021692
0.000219732
0.000210864
0.000197477
0.000180762
0.000471938
0.000552006
0.000335515
)
;
    }
    sWall
    {
        type            compressible::alphatWallFunction;
        Prt             0.85;
        value           uniform 0.000304679;
    }
    nWall
    {
        type            compressible::alphatWallFunction;
        Prt             0.85;
        value           nonuniform List<scalar> 6(0.000148864 0.00016044 0.000204243 0.000204571 0.000207783 0.000180422);
    }
    sideWalls
    {
        type            empty;
    }
    glass1
    {
        type            compressible::alphatWallFunction;
        Prt             0.85;
        value           nonuniform List<scalar> 9(0.00017076 0.000229999 0.000278305 0.000324603 0.00037204 0.000422383 0.000468007 0.000476552 0.000465012);
    }
    glass2
    {
        type            compressible::alphatWallFunction;
        Prt             0.85;
        value           nonuniform List<scalar> 2(0.000261856 0.000241115);
    }
    sun
    {
        type            compressible::alphatWallFunction;
        Prt             0.85;
        value           nonuniform List<scalar> 
14
(
0.000175151
0.000191461
0.000196015
0.0002057
0.000214559
0.00022279
0.00023078
0.000238861
0.000244788
0.000247771
0.000247116
0.000242456
0.000233887
0.000222429
)
;
    }
    heatsource1
    {
        type            compressible::alphatWallFunction;
        Prt             0.85;
        value           nonuniform List<scalar> 3(0.000113633 0.00012974 0.000149232);
    }
    heatsource2
    {
        type            compressible::alphatWallFunction;
        Prt             0.85;
        value           nonuniform List<scalar> 4(0.000214044 0.000134432 0.000134431 0.000208654);
    }
    Table_master
    {
        type            compressible::alphatWallFunction;
        Prt             0.85;
        value           nonuniform List<scalar> 9(0.000114011 9.89912e-05 8.75368e-05 7.86815e-05 7.1834e-05 6.65608e-05 6.25158e-05 5.94387e-05 5.72861e-05);
    }
    Table_slave
    {
        type            compressible::alphatWallFunction;
        Prt             0.85;
        value           nonuniform List<scalar> 9(0.000139433 0.000129235 0.000122402 0.000117645 0.000113603 0.00010898 0.00010399 9.81578e-05 9.08988e-05);
    }
    inlet
    {
        type            fixedValue;
        value           uniform 1.94e-05;
    }
    outlet
    {
        type            zeroGradient;
    }
}


// ************************************************************************* //
