/*--------------------------------*- C++ -*----------------------------------*\
  =========                 |
  \\      /  F ield         | OpenFOAM: The Open Source CFD Toolbox
   \\    /   O peration     | Website:  https://openfoam.org
    \\  /    A nd           | Version:  6
     \\/     M anipulation  |
\*---------------------------------------------------------------------------*/
FoamFile
{
    version     2.0;
    format      ascii;
    class       surfaceScalarField;
    location    "600";
    object      phi;
}
// * * * * * * * * * * * * * * * * * * * * * * * * * * * * * * * * * * * * * //

dimensions      [1 0 -1 0 0 0 0];

internalField   nonuniform List<scalar> 
852
(
-0.00302026
0.0030786
-0.00409664
0.00107636
-0.00492814
0.000831468
-0.00558347
0.000655287
-0.00603565
0.000452146
-0.00626332
0.000227624
-0.00624496
-1.83951e-05
-0.00596236
-0.000282657
-0.00542574
-0.000536669
-0.00468271
-0.000743091
-0.00380645
-0.000876309
-0.00287568
-0.000930828
-0.00195267
-0.00092306
-0.00103703
-0.000915687
-0.00103541
-0.000770737
0.00077425
-0.000560088
-0.000210614
-7.85025e-05
-0.00048156
0.00024362
-0.000322089
0.000373769
-0.000130108
0.000388089
-1.42731e-05
0.000369669
1.84703e-05
0.000359683
1.00416e-05
0.000336205
2.35394e-05
0.000288272
4.80033e-05
0.000221171
6.71813e-05
0.000150052
7.1206e-05
9.21336e-05
5.80039e-05
5.46074e-05
3.76038e-05
3.10079e-05
2.36707e-05
4.21651e-05
-1.10811e-05
0.000161191
-0.000118918
0.000457143
-0.000295842
0.000461739
-0.00213921
0.00537511
-0.00315927
0.00209639
-0.00398932
0.00166148
-0.00461454
0.00128048
-0.00504173
0.000879288
-0.00525897
0.000444821
-0.0052406
-3.68207e-05
-0.004971
-0.000552314
-0.00447324
-0.00103451
-0.00380692
-0.0014095
-0.00304902
-0.00163429
-0.00227301
-0.00170692
-0.00154779
-0.00164835
-0.000973251
-0.00149029
-0.000798712
-0.00121
-0.000168669
-0.000630134
-0.000168733
0.000334498
0.000449551
0.000665302
-0.000541406
0.000816793
-0.000633049
0.000901602
-0.000406892
0.000914246
-0.000142737
0.000871576
2.84236e-05
0.000867206
2.28769e-05
0.000881104
-3.81306e-06
0.000892656
1.20365e-05
0.000908631
3.20828e-05
0.000930446
4.54252e-05
0.00095263
4.90862e-05
0.000966628
4.40726e-05
0.000966857
3.74445e-05
0.000935844
5.47591e-05
0.000783546
0.000141297
0.000533296
0.000131417
0.000172251
6.52938e-05
0.000645427
-0.00148533
0.00710105
-0.00234514
0.00295618
-0.00305453
0.00237084
-0.0035636
0.00178951
-0.00391124
0.00122689
-0.00408247
0.000616005
-0.00403229
-8.70556e-05
-0.00373852
-0.000846162
-0.00324754
-0.00152559
-0.00263602
-0.00202114
-0.00197997
-0.00229047
-0.00133691
-0.0023501
-0.000758556
-0.00222681
-0.000303633
-0.00194529
-5.50962e-06
-0.0015082
0.000221763
-0.000857463
5.29839e-05
0.00152743
-0.00106813
0.0017489
-0.000762909
0.00166344
-0.000547612
0.00158272
-0.000326194
0.00149739
-5.74222e-05
0.00126541
0.00026041
0.00128845
0.00128482
0.00129705
0.00132933
0.00137496
0.00142425
0.00146853
0.00150619
0.00156116
0.00128797
0.000414555
0.00105651
0.000362951
0.000659373
0.000462517
0.00132159
-0.00103193
0.00844419
-0.00170308
0.0036273
-0.00213808
0.00280582
-0.00243812
0.00208953
-0.00262918
0.00141791
-0.00268463
0.000671416
-0.00253255
-0.000239193
-0.00217233
-0.00120647
-0.00168753
-0.00201052
-0.0011621
-0.00254674
-0.000653158
-0.00279958
-0.00018918
-0.00281423
0.000210125
-0.00262625
0.000538309
-0.00227358
0.000827937
-0.00179791
0.0011957
-0.0012253
0.00193231
-0.000683682
0.0024883
-0.000547612
0.00209455
-0.000674436
0.00198763
-0.00065605
0.00189104
-0.000451071
0.00180642
-0.00024161
0.00179111
-4.21396e-05
0.00195189
9.96109e-05
0.00188995
6.17799e-05
0.00189597
-6.17075e-06
0.0019298
-3.39669e-05
0.00197725
-4.75806e-05
0.00201894
-4.18139e-05
0.00201994
-1.11639e-06
0.00193674
8.3081e-05
0.00172125
0.000215375
0.00130718
0.00041394
0.000975549
0.000746238
0.000217634
0.00112094
-0.000555258
0.00123554
0.000789031
-0.000726143
0.00954097
-0.00123625
0.00413738
-0.0012776
0.00284715
-0.00128478
0.00209669
-0.00124042
0.00137354
-0.00106418
0.000495163
-0.000703782
-0.000599642
-0.000255907
-0.00165445
0.000176341
-0.00244295
0.000542733
-0.00291334
0.000832067
-0.00308913
0.00104635
-0.00302872
0.00119912
-0.00277918
0.00131617
-0.00239075
0.00143226
-0.00191409
0.00160463
-0.00139775
0.00185844
-0.000937556
0.00198533
-0.000674576
0.00188685
-0.000576021
0.00170939
-0.000478651
0.00156343
-0.000305157
0.00144977
-0.000127998
0.0013905
1.70968e-05
0.00139077
9.9323e-05
0.00137792
7.4621e-05
0.00137144
3.11505e-07
0.00139906
-6.15809e-05
0.00145417
-0.000102687
0.00152206
-0.000109687
0.00157738
-5.64212e-05
0.00158443
7.60572e-05
0.00151567
0.000284156
0.00137393
0.000555697
0.00121918
0.000901023
0.00107865
0.00126153
0.000840996
0.00147331
0.000308908
0.00132123
-0.000748003
0.00105678
-0.0012446
0.000496459
-0.00119387
-0.000639728
0.0106009
-0.00100235
0.00449999
-0.000522984
0.00236777
-7.77008e-05
0.0016514
0.00031311
0.000982726
0.00086048
-5.22024e-05
0.00147025
-0.00120946
0.00192225
-0.00210658
0.0021945
-0.0027154
0.00231711
-0.00303618
0.00232493
-0.00309721
0.00224406
-0.00294808
0.00210679
-0.00264209
0.00194983
-0.00223393
0.00180893
-0.00177331
0.00171259
-0.00130149
0.00165584
-0.000880881
0.00156176
-0.000580567
0.00138244
-0.000396762
0.00115689
-0.000253163
0.000956725
-0.000105049
0.000804092
2.45928e-05
0.000717107
0.000104049
0.000696004
0.000120402
0.000700567
7.00419e-05
0.000716422
-1.55558e-05
0.000758499
-0.000103666
0.000832538
-0.000176735
0.000936899
-0.000214056
0.00106376
-0.00018329
0.00118538
-4.55638e-05
0.00127261
0.00019693
0.00134024
0.000488064
0.0014392
0.000802077
0.00162168
0.0010791
0.00186751
0.00122756
0.00212435
0.00106448
0.00236303
0.000818191
0.00198564
0.000873928
0.000851112
-0.000701178
0.0117669
-0.000582689
0.00438148
0.000654155
0.00113091
0.00159807
0.000707476
0.00251248
6.83169e-05
0.0033881
-0.000927862
0.00395838
-0.00177983
0.0042244
-0.00237277
0.00422213
-0.00271335
0.00401049
-0.00282479
0.00365372
-0.00274071
0.00320992
-0.0025045
0.0027312
-0.00216356
0.00226395
-0.00176682
0.0018437
-0.00135315
0.00148365
-0.000941519
0.00118258
-0.000579871
0.000909001
-0.000307051
0.000629971
-0.000117795
0.0003641
1.26507e-05
0.000154211
0.000104788
2.55058e-05
0.000153253
-2.98109e-05
0.000159328
-3.73201e-05
0.000127878
-2.59583e-05
5.86495e-05
-5.51853e-06
-3.60253e-05
3.20253e-05
-0.000141241
9.63054e-05
-0.000241047
0.000196436
-0.00031422
0.000344088
-0.000330976
0.000551505
-0.00025301
0.000787983
-3.95707e-05
0.00103176
0.000244265
0.00132375
0.000510081
0.00171084
0.000692025
0.00219687
0.000741564
0.00269973
0.000561664
0.00315634
0.00036162
0.00303354
0.00099678
0.00394221
0.0027091
0.00957763
0.00344343
0.00364712
0.00408475
0.000489557
0.00516345
-0.000371244
0.00615308
-0.000921357
0.0066915
-0.0014664
0.00679859
-0.0018871
0.00654319
-0.00211762
0.00600545
-0.00217587
0.00527528
-0.00209489
0.00444252
-0.00190818
0.00358335
-0.00164553
0.00275477
-0.00133512
0.00199988
-0.00101203
0.00134761
-0.000700951
0.000788275
-0.000382229
0.000322717
-0.000114363
-5.73039e-05
7.29211e-05
-0.000347567
0.000172409
-0.000542281
0.000207303
-0.000657753
0.000220203
-0.000720325
0.000215771
-0.00074969
0.00018864
-0.000759829
0.000137967
-0.000764678
6.34491e-05
-0.000770862
-2.9892e-05
-0.000777208
-0.000134946
-0.00077835
-0.000239956
-0.00076541
-0.000327209
-0.000720764
-0.00037567
-0.000611103
-0.000362715
-0.000384459
-0.000266252
-7.0549e-05
-6.9674e-05
0.000267499
0.000172012
0.000590497
0.000369017
0.00083778
0.000494282
0.000940634
0.000458815
0.000979592
0.000322672
0.000450533
0.00152586
0.00466933
0.0101497
0.0137905
0.0128846
0.00139542
0.0123317
0.000181609
0.0116284
-0.000218265
0.0106611
-0.00049946
0.0094424
-0.000668668
0.00807257
-0.000748079
0.00664628
-0.000749832
0.00524153
-0.000690339
0.0039265
-0.000593283
0.0027468
-0.000465913
0.00171902
-0.0003074
0.000838974
-0.000132022
8.8011e-05
4.99976e-05
-0.000497286
0.000203059
-0.00088027
0.000268571
-0.00109921
0.000291795
-0.00122213
0.000295256
-0.00130068
0.000285787
-0.00135063
0.000270083
-0.00138289
0.000247968
-0.00140944
0.00021512
-0.00143964
0.000168104
-0.00148135
0.000105093
-0.001541
2.9691e-05
-0.0016269
-4.91054e-05
-0.00174844
-0.000118477
-0.00191565
-0.000160056
-0.00214084
-0.000150523
-0.00243588
-6.77118e-05
-0.0028072
0.000105035
-0.00325593
0.000379024
-0.00383141
0.000747476
-0.00463408
0.00117168
-0.00573016
0.00159034
-0.00719437
0.00192301
-0.00882987
0.00195817
-0.00803474
0.000730724
-0.00306071
0.00436281
0.00328345
0.00337275
0.00117128
0.00372573
-0.000571395
0.003708
-0.00048173
0.00329843
-0.000259026
0.00268195
-0.00013149
0.00195268
-2.04576e-05
0.00117346
8.89765e-05
0.000402937
0.000177344
-0.000305281
0.000242414
-0.000897406
0.000284753
-0.0013407
0.000311256
-0.00162746
0.000336712
-0.00177611
0.000351655
-0.00185166
0.000344054
-0.00188315
0.000323205
-0.00188885
0.000300886
-0.00188361
0.000280471
-0.00187529
0.000261677
-0.00186919
0.000241798
-0.00187103
0.000216873
-0.00188614
0.000183137
-0.0019194
0.000138269
-0.00197376
8.3978e-05
-0.00205039
2.74516e-05
-0.00215042
-1.851e-05
-0.00227281
-3.77321e-05
-0.00241043
-1.29526e-05
-0.00255302
7.48252e-05
-0.00269426
0.000246236
-0.00283427
0.000519002
-0.0029758
0.000888981
-0.00310326
0.00129911
-0.00314683
0.00163389
-0.0029839
0.00176006
-0.00231357
0.00128781
-0.00100473
-0.000578156
-0.00399001
-0.000512484
0.00388716
-6.82675e-05
0.000727044
-0.00080185
0.000162181
-0.00136343
7.99091e-05
-0.00174997
0.00012762
-0.0020604
0.000179037
-0.00230765
0.000226865
-0.00248922
0.000270596
-0.00261886
0.000307028
-0.00270212
0.000325694
-0.00274046
0.000323071
-0.00273546
0.000306216
-0.0026854
0.000286594
-0.0026001
0.000266289
-0.00250081
0.000244696
-0.00240164
0.000223953
-0.00230711
0.000206277
-0.00221848
0.000191759
-0.00213627
0.000179377
-0.00206167
0.000167113
-0.00199718
0.000152298
-0.00194633
0.0001322
-0.0019131
0.000104947
-0.00190036
7.11596e-05
-0.001908
3.5008e-05
-0.00193101
4.41907e-06
-0.00195939
-9.4236e-06
-0.00197844
6.02453e-06
-0.00196618
6.25015e-05
-0.00189335
0.000173354
-0.00172998
0.000355587
-0.00145812
0.000617071
-0.00106761
0.000908565
-0.000464931
0.00103118
0.000369934
0.000925161
0.00131054
0.000347168
0.00144544
-0.000713112
-0.00246176
-0.00744228
-0.0106678
-0.00672671
-0.00597505
-0.00579761
-0.00570654
-0.0055704
-0.00538485
-0.00515305
-0.00487877
-0.00456913
-0.00424174
-0.00391779
-0.00361139
-0.00332518
-0.00305972
-0.00281617
-0.00259358
-0.00238878
-0.00219854
-0.00202066
-0.00185495
-0.00170392
-0.00157278
-0.00146866
-0.00139803
-0.00136321
-0.00135862
-0.0013675
-0.0013606
-0.00129693
-0.00112219
-0.000765074
-0.000146388
0.000763799
0.00179652
0.0027231
0.00307161
0.00235971
)
;

boundaryField
{
    floor
    {
        type            calculated;
        value           nonuniform List<scalar> 
29
(
0
0
0
0
0
0
0
0
0
0
0
0
0
0
0
0
0
0
0
0
-4.4913e-06
-1.13503e-05
-1.67015e-05
-2.25918e-05
-1.65671e-06
-3.46469e-06
-9.75085e-06
-9.76908e-06
-8.44594e-06
)
;
    }
    ceiling
    {
        type            calculated;
        value           nonuniform List<scalar> 
43
(
-5.79443e-05
-5.5738e-05
-5.39456e-05
-2.45961e-05
-1.52435e-05
-1.11563e-05
-8.50906e-06
-6.50853e-06
-4.94651e-06
-3.69284e-06
-2.64037e-06
-1.72458e-06
-9.22986e-07
-2.3683e-07
3.28128e-07
7.65997e-07
1.082e-06
1.28988e-06
1.40571e-06
1.44307e-06
1.41218e-06
1.32101e-06
1.17523e-06
9.78296e-07
7.3211e-07
4.38568e-07
1.02957e-07
-2.61069e-07
-6.28881e-07
-9.65488e-07
-1.2482e-06
-1.46197e-06
-1.60443e-06
-1.6786e-06
-1.67631e-06
-1.58654e-06
-1.47858e-06
-1.38678e-06
-1.28076e-06
-5.12944e-07
9.13815e-06
6.327e-06
-9.1282e-05
)
;
    }
    sWall
    {
        type            calculated;
        value           uniform -0.00028362;
    }
    nWall
    {
        type            calculated;
        value           nonuniform List<scalar> 6(-5.08634e-05 -5.92649e-05 -5.75084e-05 -7.54972e-05 -8.28682e-05 -0.000101603);
    }
    sideWalls
    {
        type            empty;
        value           nonuniform 0();
    }
    glass1
    {
        type            calculated;
        value           nonuniform List<scalar> 9(-5.83758e-05 -0.000157342 -0.000240656 -0.000311266 -0.00037069 -0.000420261 -0.000464882 -0.000519853 -0.000581266);
    }
    glass2
    {
        type            calculated;
        value           nonuniform List<scalar> 2(-0.000276548 -0.000304713);
    }
    sun
    {
        type            calculated;
        value           uniform 0;
    }
    heatsource1
    {
        type            calculated;
        value           nonuniform List<scalar> 3(2.05086e-07 2.04908e-07 2.04912e-07);
    }
    heatsource2
    {
        type            calculated;
        value           nonuniform List<scalar> 4(5.12087e-08 5.13426e-08 0 0);
    }
    Table_master
    {
        type            calculated;
        value           nonuniform List<scalar> 9(-1.53573e-07 -1.53612e-07 -1.5363e-07 -1.5364e-07 -1.53646e-07 -1.53651e-07 -1.53657e-07 -1.53664e-07 -1.53666e-07);
    }
    Table_slave
    {
        type            calculated;
        value           nonuniform List<scalar> 9(1.53238e-07 1.53284e-07 1.5327e-07 1.53252e-07 1.53237e-07 1.53241e-07 1.5325e-07 1.53291e-07 1.53381e-07);
    }
    inlet
    {
        type            calculated;
        value           uniform -0.00625094;
    }
    outlet
    {
        type            calculated;
        value           nonuniform List<scalar> 2(0.00778387 0.00328134);
    }
}


// ************************************************************************* //
