/*--------------------------------*- C++ -*----------------------------------*\
  =========                 |
  \\      /  F ield         | OpenFOAM: The Open Source CFD Toolbox
   \\    /   O peration     | Website:  https://openfoam.org
    \\  /    A nd           | Version:  6
     \\/     M anipulation  |
\*---------------------------------------------------------------------------*/
FoamFile
{
    version     2.0;
    format      ascii;
    class       volScalarField;
    location    "1200";
    object      nut;
}
// * * * * * * * * * * * * * * * * * * * * * * * * * * * * * * * * * * * * * //

dimensions      [0 2 -1 0 0 0 0];

internalField   nonuniform List<scalar> 
459
(
0.00114976
0.00126056
0.00128689
0.00135109
0.00141144
0.00146906
0.00152714
0.00157833
0.0016114
0.00162037
0.00160045
0.00154842
0.0014624
0.00134549
0.00121263
0.000522886
0.000628846
0.000711291
0.000715923
0.000694911
0.000664441
0.000623206
0.000581652
0.000543921
0.000510508
0.000480999
0.000454854
0.00043161
0.000410809
0.000391697
0.000373338
0.000354433
0.000341751
0.000312398
0.00155885
0.00392406
0.00380412
0.0044417
0.00507414
0.00569179
0.00620046
0.0066117
0.00697136
0.00725009
0.00741493
0.00743316
0.00725713
0.00676581
0.00545686
0.00124857
0.000781283
0.000548069
0.00118023
0.00166765
0.00203165
0.0022341
0.00222781
0.00174934
0.0014965
0.00131902
0.00118433
0.00107819
0.000992349
0.000919644
0.000851636
0.000784932
0.000725106
0.000672798
0.000795722
0.000409015
0.00189573
0.00535875
0.00475352
0.00590881
0.00649825
0.00693922
0.00727992
0.00758259
0.0079027
0.00822219
0.00850181
0.00869698
0.00875738
0.0085797
0.00792126
0.00596661
0.00130774
0.00103899
0.00155447
0.00205372
0.00252152
0.00284776
0.00277408
0.000883601
0.000778171
0.000693271
0.000624796
0.000569101
0.00052334
0.000485455
0.000454175
0.000429022
0.000464214
0.000538829
0.000904994
0.000475562
0.00221598
0.00679097
0.00481023
0.00624415
0.0067255
0.00690996
0.00705669
0.00725765
0.00754479
0.00789632
0.00826082
0.0085804
0.0087945
0.00881632
0.00860892
0.00782951
0.00512519
0.00153593
0.00190876
0.00250227
0.00311921
0.00363152
0.00394833
0.0036932
0.000995159
0.00090458
0.00083925
0.000788664
0.000745002
0.000705722
0.000667834
0.000628202
0.000582587
0.000545188
0.000563127
0.00105912
0.000525515
0.00254082
0.00860891
0.00531022
0.00608797
0.00667372
0.00673023
0.00671982
0.00687839
0.00714671
0.00752159
0.00793399
0.00830194
0.00853489
0.00858872
0.00846972
0.00814217
0.0073948
0.00620568
0.00581523
0.0057281
0.0057328
0.00573175
0.00566869
0.00541757
0.00451706
0.00407874
0.00381888
0.00361686
0.00340819
0.00311035
0.00273069
0.00228608
0.00180367
0.00132962
0.000983355
0.0010415
0.000689011
0.000638085
0.000763192
0.00085507
0.00288417
0.0105881
0.00724088
0.00624314
0.0066699
0.00671668
0.0067063
0.00679776
0.0070089
0.00736577
0.00780972
0.00821659
0.00845879
0.00847296
0.00829352
0.00802538
0.00776228
0.00754036
0.0074418
0.00734631
0.00718875
0.0069735
0.00671195
0.00638832
0.00594632
0.00556442
0.00523803
0.00493538
0.00463381
0.00429974
0.00388569
0.00337977
0.00278691
0.00214891
0.00160183
0.00120057
0.000930355
0.0008162
0.0011787
0.000897157
0.00318865
0.0119303
0.00994353
0.00801607
0.00764886
0.00731173
0.00700877
0.0069107
0.00707113
0.00746281
0.00796984
0.00841832
0.0086495
0.00859523
0.00832365
0.00802911
0.00791855
0.00800562
0.00808402
0.00798904
0.00771945
0.00734152
0.00690524
0.00643832
0.00596662
0.00554833
0.00518223
0.00485254
0.00455374
0.00428855
0.00405007
0.00369169
0.00320935
0.00264286
0.00211911
0.00165604
0.00134549
0.00128153
0.00133935
0.00103575
0.00324088
0.0103766
0.00939579
0.00862691
0.00789719
0.00722468
0.00685172
0.00686511
0.0072336
0.00783482
0.00847423
0.00893606
0.00907037
0.00885721
0.00844562
0.00812929
0.00812142
0.00826356
0.00819554
0.0078689
0.00736528
0.00676886
0.00614978
0.00557097
0.0050784
0.00468222
0.00436079
0.00409777
0.00389081
0.00374547
0.00366638
0.00360659
0.0033252
0.00295219
0.00263967
0.00250693
0.00267423
0.00323964
0.00406148
0.00159609
0.00314967
0.00371149
0.00407551
0.00417424
0.00441374
0.0049378
0.00574968
0.00678036
0.00788486
0.00887052
0.0095392
0.00974388
0.00948408
0.00891826
0.00840967
0.00816291
0.00803781
0.00783319
0.00742133
0.00681369
0.00609964
0.00537836
0.00473681
0.00422251
0.00383344
0.00353767
0.00330231
0.00310667
0.00293826
0.00278762
0.00264706
0.00252212
0.00242463
0.00236112
0.00235014
0.00237819
0.00237323
0.00227187
0.00211045
0.00146911
0.00141734
0.00370482
0.00680572
0.00881478
0.0101257
0.010911
0.0112147
0.0111089
0.0106817
0.0100023
0.00911185
0.0082911
0.00774389
0.00738094
0.00697586
0.0064346
0.00577425
0.00506744
0.00438762
0.00380489
0.00336074
0.0030429
0.00281661
0.00265033
0.00252389
0.00242692
0.00235513
0.00230841
0.0022909
0.00229819
0.00231979
0.00235244
0.00238472
0.00238512
0.00230654
0.00213304
0.00187675
0.00118291
0.00219157
0.00697804
0.0095014
0.0101611
0.010331
0.0101358
0.00961605
0.00890259
0.00811925
0.0073662
0.00668416
0.00614503
0.0057089
0.00525444
0.00474033
0.00419901
0.00367675
0.00321666
0.0028441
0.00256073
0.00235515
0.00221558
0.00212593
0.00207497
0.00205565
0.00206237
0.00208884
0.0021324
0.00219712
0.00227866
0.00237339
0.00247382
0.00256321
0.00262619
0.00261378
0.00261471
0.0023695
0.00119758
0.00196345
0.00208311
0.00216944
0.0023402
0.00224225
0.00215459
0.00207933
0.00197092
0.00182642
0.00165462
0.00146569
0.00127881
0.00111656
0.000989131
0.00089392
0.000823177
0.000769945
0.000729902
0.00070112
0.000682775
0.000673975
0.000673659
0.000680004
0.000691436
0.000707351
0.000727489
0.000751865
0.000780789
0.00081498
0.000855085
0.000900803
0.000952593
0.00101092
0.00107633
0.00114882
0.00124464
0.00127208
0.00124049
0.00115697
0.00106725
)
;

boundaryField
{
    floor
    {
        type            nutkWallFunction;
        Cmu             0.09;
        kappa           0.41;
        E               9.8;
        value           nonuniform List<scalar> 
29
(
0.000145447
6.26344e-05
7.59445e-05
8.61112e-05
8.66781e-05
8.41031e-05
8.03524e-05
7.52434e-05
7.00531e-05
6.53011e-05
6.10589e-05
5.72837e-05
5.39148e-05
5.08991e-05
4.81831e-05
4.56721e-05
4.32452e-05
4.07301e-05
3.9033e-05
3.5073e-05
3.50729e-05
4.79473e-05
5.65843e-05
6.29674e-05
0.000145447
6.26343e-05
6.58253e-05
0.000125294
0.00018215
)
;
    }
    ceiling
    {
        type            nutkWallFunction;
        Cmu             0.09;
        kappa           0.41;
        E               9.8;
        value           nonuniform List<scalar> 
43
(
0.000229226
0.000242225
0.000251555
0.000270041
0.000259581
0.00025015
0.000242014
0.000230228
0.000214403
0.000195406
0.000174262
0.000153047
0.000134344
0.00011944
0.00010816
9.96883e-05
9.32577e-05
8.83859e-05
8.48645e-05
8.2611e-05
8.15275e-05
8.14887e-05
8.22701e-05
8.36758e-05
8.56283e-05
8.80912e-05
9.10618e-05
9.45719e-05
9.87015e-05
0.00010352
0.00010898
0.000115127
0.000122004
0.000129662
0.000138088
0.000149135
0.000152279
0.000148658
0.000139032
0.000128603
0.000355663
0.000413546
0.000253728
)
;
    }
    sWall
    {
        type            nutkWallFunction;
        Cmu             0.09;
        kappa           0.41;
        E               9.8;
        value           uniform 0.000229291;
    }
    nWall
    {
        type            nutkWallFunction;
        Cmu             0.09;
        kappa           0.41;
        E               9.8;
        value           nonuniform List<scalar> 6(0.00010352 0.000108548 0.000124922 0.000142041 0.000143733 0.000128611);
    }
    sideWalls
    {
        type            empty;
    }
    glass1
    {
        type            nutkWallFunction;
        Cmu             0.09;
        kappa           0.41;
        E               9.8;
        value           nonuniform List<scalar> 9(0.000138327 0.000184977 0.000222356 0.000257222 0.000292041 0.000328338 0.000360151 0.000365588 0.000356128);
    }
    glass2
    {
        type            nutkWallFunction;
        Cmu             0.09;
        kappa           0.41;
        E               9.8;
        value           nonuniform List<scalar> 2(0.000188984 0.000174733);
    }
    sun
    {
        type            nutkWallFunction;
        Cmu             0.09;
        kappa           0.41;
        E               9.8;
        value           nonuniform List<scalar> 
14
(
0.000138196
0.000150952
0.000153966
0.000161285
0.000168131
0.000174636
0.000181165
0.000186896
0.000190587
0.000191587
0.000189365
0.000183549
0.000173884
0.000160647
)
;
    }
    heatsource1
    {
        type            nutkWallFunction;
        Cmu             0.09;
        kappa           0.41;
        E               9.8;
        value           nonuniform List<scalar> 3(7.70929e-05 9.24384e-05 0.000103517);
    }
    heatsource2
    {
        type            nutkWallFunction;
        Cmu             0.09;
        kappa           0.41;
        E               9.8;
        value           nonuniform List<scalar> 4(0.000149571 9.46316e-05 9.46316e-05 0.00015634);
    }
    Table_master
    {
        type            nutkWallFunction;
        Cmu             0.09;
        kappa           0.41;
        E               9.8;
        value           nonuniform List<scalar> 9(0.000106927 9.42548e-05 8.39033e-05 7.54442e-05 6.84813e-05 6.26981e-05 5.78631e-05 5.38358e-05 5.05721e-05);
    }
    Table_slave
    {
        type            nutkWallFunction;
        Cmu             0.09;
        kappa           0.41;
        E               9.8;
        value           nonuniform List<scalar> 9(0.000120146 0.000109427 0.000101619 9.55246e-05 9.02273e-05 8.543e-05 8.07726e-05 7.58667e-05 7.01736e-05);
    }
    inlet
    {
        type            calculated;
        value           uniform 0.000100623;
    }
    outlet
    {
        type            calculated;
        value           nonuniform List<scalar> 2(0.00196345 0.00208311);
    }
}


// ************************************************************************* //
