/*--------------------------------*- C++ -*----------------------------------*=========                 |
  \      /  F ield         | OpenFOAM: The Open Source CFD Toolbox
   \    /   O peration     | Website:  https://openfoam.org
    \  /    A nd           | Version:  6
     \/     M anipulation  |
\*---------------------------------------------------------------------------*/
FoamFile
{
    version     2.0;
    format      ascii;
    class       volScalarField;
    location    "1200";
    object      PPD;
}
// * * * * * * * * * * * * * * * * * * * * * * * * * * * * * * * * * * * * * //

dimensions      [0 0 0 0 0 0 0];

internalField   nonuniform List<scalar> 
459
(
58.6077420840619
46.80795820104048
45.376260723350306
44.12512737611933
43.31885955350549
42.85054498866529
42.75701502943356
42.99948927014846
43.6025059613868
44.601230851085596
46.10909279250367
48.21938864124175
51.05148600808605
52.36584044120393
52.70396876395489
56.52781499222328
55.80016229653076
55.51412404737815
55.64415181657409
55.80016229653076
55.98214008664805
55.88875392838209
55.62726801057431
55.62148655500329
55.68147873439473
55.77515980811451
55.893677483128194
56.0433525313711
56.24376323227103
56.54907911203027
57.079338669973986
57.77316201100488
58.006296367277066
58.67900546212518
56.49730443493264
47.94611552073961
47.45422072670064
46.30757534256353
45.63762113367235
45.269376552592206
45.19507133973654
45.30934098357151
45.60435455465448
46.11558336163171
47.00880067336293
48.45251989691813
50.542177921590884
51.819874493079226
51.9238414840894
51.975829971553054
52.079816515526794
54.78790420271793
55.2019952074955
54.99386769556018
55.115856626912574
54.83442834710635
54.61133491133108
54.537917646552884
54.58432116212552
54.668929077109524
54.73568780168937
54.7928500637183
54.85507954129233
54.92603525357662
55.03473306548616
55.19679281076781
55.663702988999134
56.72495531417506
57.124921072674056
56.81591242514649
58.695982837972586
48.10465063258953
49.42963241240519
48.90278052565462
48.75295766282301
48.733282798360236
48.8350550155713
48.811407020547854
48.508992158496156
48.1156590942444
47.983383671414224
48.39639041261679
49.58975161529076
51.55099783496578
51.715921366466006
51.897848472797136
52.00182542698284
49.585198567465596
51.626238303104884
52.2249851529427
52.74775463113355
53.34634173541707
53.761602590537954
53.946292723464644
54.45445119327129
54.850876227313684
55.03779783359535
55.16128436943903
55.225977866654276
55.28394152538515
55.26493664920404
55.057339241133455
55.17870168088455
56.15671705463003
55.82355706792429
53.461635993403554
62.74634091121216
48.42776385469144
50.96755522042705
51.559432036214275
52.571720513287886
53.45140676604587
54.0785778254013
53.56704959231033
51.87462911532232
49.810430751439206
48.20883511227287
47.526022219607256
47.98047848063098
49.34476025207506
51.10356575677705
51.94983532046386
50.664677954315174
48.51958826071117
48.69406575024993
50.22665509263226
51.69738063228731
52.97531642587928
54.10886889133743
54.98777869097019
55.38072959104528
55.35476992715426
55.35981574225521
55.46715897138949
55.61744436315183
55.84940689558906
56.25710854935547
56.950854612199265
58.19227637007152
57.835898803583625
57.031596839470744
54.78741890822942
51.11556930356416
67.4343595922951
49.538565144603304
52.46077128145817
54.164520770295695
56.93535176440943
60.02989305981637
60.97054561468687
57.70563923370879
53.55198754729091
49.866081119380624
47.34064636582715
46.14135544474682
46.277772474093496
47.45609781812081
49.16110098821638
50.54333126202599
50.71353084264933
50.51045519024999
51.06173328299002
52.4374856687051
54.13856649205042
55.69200426435419
57.05180769971818
58.08916346603668
58.75278969948513
58.98270813761608
59.096287501794954
59.13705248405745
59.13816734971093
59.101683997406525
59.10380299145894
59.18288296574583
59.275163650599865
58.50988583420396
57.03902625573381
53.85260631627974
53.51028172858972
60.68842235501449
60.09352740428059
51.273938193019184
71.94529086585501
51.859477870713896
55.37417286458365
57.149286854087734
60.996175823687
62.604497228637555
60.84901054038285
56.390916940044434
52.01733153747193
48.174594765915195
45.52993403128525
44.41226308553769
44.78958691491166
46.3558807863741
48.59852620404264
50.84998568122402
52.416707359903434
53.505813545879114
54.81869265325515
56.5196723242864
57.82498096309324
58.70485367868305
59.42776436211252
60.020260318760194
60.48302743382478
60.8679955908458
61.14989494393463
61.329096980730554
61.431430575435776
61.38026998607397
61.20111071914132
60.944912476001655
60.55945374838785
59.15210148641209
57.2450824624355
53.88408498874038
53.70870588443904
54.66620394768792
54.69428117062959
55.38983291020009
76.21570854105904
57.06821901547219
63.57656359635098
62.35951215347696
62.16227366990651
60.29506397899377
56.996857494130786
52.66179767941443
48.223719196594814
44.64985091186282
42.64312905129691
42.394197331929675
43.78233727557976
46.388647578425086
49.75788276192269
53.269491451444914
55.254022240919646
56.57976132551182
57.77316201100488
58.83406500498579
59.78856587481125
60.560071247759836
61.17550433997016
61.63594703149911
61.993352707171084
62.24824041626438
62.42645578333791
62.52821528700576
62.50278077315745
62.37555469158364
62.0698548463177
61.687044234906566
61.226714070550855
60.61142003260791
58.41795201046997
55.29204452346914
54.03300275311238
53.503601013060454
52.16974281586066
56.73106967899295
81.90309663448905
73.68781520942262
71.52229362479932
66.52313982142294
63.107482809378375
58.158297911911426
52.050578769272526
46.09479398476783
41.54158426999016
39.10189801447414
38.94068295176681
40.78011662887295
44.177371110215205
48.72000593859052
53.588655108625886
55.7741623701409
57.56582399943318
58.98905169184499
60.09744672534503
60.996175823687
61.712587990188005
62.27371026177745
62.70615568011687
63.01077608607335
63.23888347767203
63.365473972084494
63.416082600555335
63.416082600555335
63.31484954663646
63.13754090097312
62.85853308475074
62.45190101048944
61.993352707171084
61.457006186910185
60.84235084243734
60.25175015779808
59.18857181113248
58.55506593900479
55.293442788246345
50.77476754812344
88.81788896313215
84.46883214728499
77.81322316431154
69.00765101463834
56.59311216293887
44.28116525783454
35.626989738950144
31.106261543233813
30.178307035903856
32.14539431483185
36.444210510521835
42.431656701121234
49.445284079270344
53.38046216895079
56.65767271827829
58.93739770351286
60.405959117756986
61.431430575435776
62.19729031548521
62.807755434932
63.31484954663646
63.37979578474713
63.366612029764696
63.300161638654174
63.21008951687269
63.043416711796
62.800013650479436
62.46381255234195
62.04378805748573
61.53658355181399
60.92140256858614
60.24987150505069
59.613391923894696
58.81924288021305
57.954523769321156
57.219233896219635
56.74008404091313
56.467817467426116
55.869098196263074
54.260561759700465
99.01884464109393
73.0902154188908
34.06713125379473
8.255810510189946
5.704433846456169
13.288226642113557
25.604787781303628
36.9916057340184
45.57953761426723
51.94983532046386
55.82616146967207
58.12365918069947
59.244097311138766
60.20242337870519
60.923472361647754
61.42326146192888
61.79276684888349
61.99024966809577
62.082477114961605
62.05809625238941
61.98158497467237
61.82494997826348
61.6306252665806
61.38982672760585
61.12576807364694
60.84376128717746
60.53007742823115
60.28091610309185
60.06523795977656
59.89996096873301
59.785100131626166
59.73334151445143
59.6937783451425
59.81111633994496
60.38068185626291
62.266092881597835
66.04502008404737
57.825361737921874
93.0547859362529
26.373213109913152
5.057863112006331
12.434598668551473
22.544827206508756
31.232516155171496
38.68992241126073
44.86688559612411
49.771655905156315
53.39925510077285
55.85326642819715
57.59961585619565
58.82896015896934
59.71661854183652
60.31434256908623
60.747955889040796
61.01832645604615
61.18632860403129
61.29016951375307
61.34070495568105
61.32919268658031
61.302054584209436
61.257775746297284
61.17080747378788
61.07102699603012
60.96630402780008
60.89697329543793
60.83386397110743
60.8607731081972
61.02545219198215
61.40063854830553
62.01037924599947
62.65266623034498
63.19843528856816
63.8039034381474
65.83282072344923
62.443472256107476
59.87767252969264
19.55005015392811
24.806113436652836
20.238486146950464
8.404591308537888
22.667617648886747
31.748472501610166
38.08241696512124
43.271286315039674
47.58540960992098
51.153750334733175
54.030008009429665
56.196566539924206
57.769833894233486
58.86871823319765
59.60217699775007
60.03684656226545
60.28207912440518
60.3965450837485
60.436479044727484
60.4274389858782
60.41405754923362
60.40445035754324
60.391219494892624
60.391904019306565
60.40543764002086
60.43340988217738
60.48203253377922
60.563941114062274
60.6993006213859
60.91177693331116
61.27106193685176
61.86943087317238
62.959184963391266
64.9386086380414
66.34619034441158
66.66766171710623
64.94534564882699
62.80769610749305
60.60203637996366
60.847382087795204
)
;

boundaryField
{
    ".*"
    {
        type            zeroGradient;
    }
}


// ************************************************************************* //
