// -*- C++ -*-
// File generated by PyFoam - sorry for the ugliness

FoamFile
{
 version 2.0;
 format ascii;
 class volScalarField;
 location "1200";
 object T;
}

dimensions [ 0 0 0 1 0 0 0 ];

internalField nonuniform List<scalar> 459
(
  302.648
  302.368
  302.353
  302.348
  302.344
  302.339
  302.334
  302.327
  302.318
  302.307
  302.297
  302.29
  302.289
  302.293
  302.306
  302.453
  302.425
  302.414
  302.419
  302.425
  302.432
  302.438
  302.444
  302.451
  302.457
  302.463
  302.469
  302.475
  302.481
  302.487
  302.493
  302.501
  302.51
  302.536
  302.833
  302.409
  302.38
  302.38
  302.381
  302.38
  302.376
  302.365
  302.347
  302.323
  302.299
  302.281
  302.272
  302.272
  302.276
  302.278
  302.282
  302.457
  302.402
  302.394
  302.399
  302.408
  302.416
  302.42
  302.423
  302.426
  302.429
  302.432
  302.435
  302.438
  302.442
  302.446
  302.453
  302.462
  302.476
  302.518
  303.026
  302.462
  302.416
  302.423
  302.434
  302.442
  302.443
  302.429
  302.397
  302.354
  302.312
  302.28
  302.264
  302.262
  302.268
  302.275
  302.279
  302.379
  302.373
  302.381
  302.397
  302.414
  302.427
  302.427
  302.428
  302.43
  302.431
  302.433
  302.434
  302.436
  302.438
  302.44
  302.445
  302.452
  302.465
  302.511
  303.223
  302.53
  302.455
  302.468
  302.495
  302.519
  302.531
  302.512
  302.459
  302.389
  302.324
  302.278
  302.256
  302.255
  302.264
  302.277
  302.287
  302.304
  302.326
  302.356
  302.387
  302.417
  302.443
  302.463
  302.48
  302.494
  302.506
  302.517
  302.526
  302.533
  302.539
  302.544
  302.546
  302.513
  302.487
  302.477
  302.513
  303.415
  302.617
  302.504
  302.514
  302.554
  302.598
  302.625
  302.594
  302.512
  302.412
  302.327
  302.27
  302.245
  302.246
  302.263
  302.286
  302.309
  302.334
  302.365
  302.4
  302.437
  302.47
  302.499
  302.522
  302.543
  302.56
  302.574
  302.584
  302.591
  302.594
  302.593
  302.589
  302.58
  302.555
  302.52
  302.494
  302.511
  302.614
  302.662
  302.667
  303.589
  302.731
  302.591
  302.581
  302.626
  302.689
  302.699
  302.636
  302.528
  302.409
  302.31
  302.248
  302.226
  302.237
  302.268
  302.307
  302.345
  302.383
  302.423
  302.464
  302.503
  302.537
  302.565
  302.588
  302.606
  302.621
  302.632
  302.639
  302.643
  302.641
  302.634
  302.624
  302.609
  302.585
  302.55
  302.517
  302.514
  302.558
  302.58
  302.621
  303.753
  302.912
  302.777
  302.756
  302.781
  302.804
  302.748
  302.628
  302.482
  302.346
  302.248
  302.199
  302.198
  302.232
  302.287
  302.348
  302.404
  302.455
  302.501
  302.542
  302.579
  302.609
  302.633
  302.651
  302.665
  302.675
  302.682
  302.686
  302.685
  302.68
  302.668
  302.653
  302.635
  302.611
  302.58
  302.548
  302.533
  302.546
  302.561
  302.595
  303.987
  303.363
  303.216
  303.142
  303.062
  302.911
  302.71
  302.498
  302.314
  302.186
  302.126
  302.127
  302.173
  302.249
  302.34
  302.424
  302.493
  302.548
  302.591
  302.626
  302.654
  302.676
  302.693
  302.705
  302.714
  302.719
  302.721
  302.721
  302.717
  302.71
  302.699
  302.683
  302.665
  302.644
  302.62
  302.597
  302.59
  302.61
  302.637
  302.789
  304.324
  304.028
  303.734
  303.414
  302.99
  302.559
  302.218
  301.996
  301.894
  301.893
  301.966
  302.08
  302.205
  302.332
  302.458
  302.546
  302.603
  302.643
  302.673
  302.697
  302.717
  302.731
  302.741
  302.747
  302.751
  302.752
  302.751
  302.748
  302.744
  302.74
  302.737
  302.736
  302.738
  302.746
  302.764
  302.794
  302.836
  302.877
  302.902
  302.966
  293.294
  295.059
  297.149
  298.686
  299.787
  300.604
  301.221
  301.683
  302.03
  302.277
  302.426
  302.531
  302.607
  302.659
  302.695
  302.72
  302.74
  302.754
  302.765
  302.772
  302.777
  302.779
  302.78
  302.78
  302.78
  302.78
  302.779
  302.78
  302.781
  302.783
  302.788
  302.799
  302.816
  302.841
  302.871
  302.9
  302.923
  302.946
  294.511
  296.987
  299.211
  300.346
  301.06
  301.554
  301.906
  302.171
  302.37
  302.512
  302.605
  302.669
  302.712
  302.742
  302.762
  302.777
  302.787
  302.794
  302.799
  302.802
  302.803
  302.804
  302.805
  302.805
  302.805
  302.805
  302.806
  302.806
  302.807
  302.809
  302.813
  302.821
  302.833
  302.85
  302.87
  302.894
  302.894
  302.927
  298.335
  298.26
  298.254
  300.586
  301.505
  301.896
  302.135
  302.316
  302.457
  302.567
  302.651
  302.711
  302.753
  302.782
  302.802
  302.815
  302.824
  302.83
  302.834
  302.836
  302.837
  302.837
  302.836
  302.835
  302.834
  302.833
  302.832
  302.831
  302.83
  302.829
  302.829
  302.829
  302.83
  302.833
  302.838
  302.851
  302.862
  302.871
  302.875
  302.915
)
;

boundaryField
{
  floor
  {
    type wallHeatTransfer;
    Tinf uniform 305.2;
    alphaWall uniform 0.24;
    value nonuniform List<scalar> 29
(
  302.585
  302.94
  302.858
  302.813
  302.815
  302.829
  302.848
  302.872
  302.899
  302.925
  302.951
  302.976
  303
  303.023
  303.046
  303.068
  303.09
  303.115
  303.136
  303.191
  303.191
  303.077
  303.019
  302.988
  302.585
  302.94
  302.928
  302.685
  302.536
)
;
  }
  ceiling
  {
    type wallHeatTransfer;
    Tinf uniform 303.2;
    alphaWall uniform 0.24;
    value nonuniform List<scalar> 43
(
  298.653
  298.567
  298.552
  300.735
  301.605
  301.975
  302.202
  302.374
  302.509
  302.615
  302.696
  302.757
  302.799
  302.829
  302.85
  302.865
  302.875
  302.882
  302.887
  302.89
  302.891
  302.891
  302.89
  302.889
  302.887
  302.885
  302.883
  302.881
  302.878
  302.876
  302.874
  302.872
  302.871
  302.872
  302.875
  302.884
  302.894
  302.902
  302.907
  302.946
  304.274
  303.995
  295.025
)
;
  }
  sWall
  {
    type wallHeatTransfer;
    Tinf uniform 315.2;
    alphaWall uniform 0.36;
    value uniform 299.94;
  }
  nWall
  {
    type wallHeatTransfer;
    Tinf uniform 307.2;
    alphaWall uniform 0.36;
    value nonuniform List<scalar> 6
(
  303.471
  303.406
  303.309
  303.546
  303.523
  303.566
)
;
  }
  sideWalls
  {
    type empty;
  }
  glass1
  {
    type wallHeatTransfer;
    Tinf uniform 315.2;
    alphaWall uniform 4.3;
    value nonuniform List<scalar> 9
(
  311.082
  310.401
  309.979
  309.662
  309.4
  309.163
  308.997
  309.085
  309.339
)
;
  }
  glass2
  {
    type wallHeatTransfer;
    Tinf uniform 307.2;
    alphaWall uniform 4.3;
    value nonuniform List<scalar> 2
(
  305.453
  305.595
)
;
  }
  sun
  {
    type wallHeatTransfer;
    Tinf uniform 305.2;
    alphaWall uniform 0.24;
    value nonuniform List<scalar> 14
(
  302.905
  302.633
  302.615
  302.601
  302.589
  302.577
  302.565
  302.552
  302.54
  302.529
  302.523
  302.522
  302.531
  302.551
)
;
  }
  heatsource1
  {
    type fixedGradient;
    gradient uniform 0;
  }
  heatsource2
  {
    type fixedGradient;
    gradient uniform 0;
  }
  Table_master
  {
    type zeroGradient;
  }
  Table_slave
  {
    type zeroGradient;
  }
  inlet
  {
    type fixedValue;
    value uniform 290.15;
  }
  outlet
  {
    type zeroGradient;
  }
} 	// ************************************************************************* //

