/*--------------------------------*- C++ -*----------------------------------*=========                 |
  \      /  F ield         | OpenFOAM: The Open Source CFD Toolbox
   \    /   O peration     | Website:  https://openfoam.org
    \  /    A nd           | Version:  6
     \/     M anipulation  |
\*---------------------------------------------------------------------------*/
FoamFile
{
    version     2.0;
    format      ascii;
    class       volScalarField;
    location    "1900";
    object      PMV;
}
// * * * * * * * * * * * * * * * * * * * * * * * * * * * * * * * * * * * * * //

dimensions      [0 0 0 0 0 0 0];

internalField   nonuniform List<scalar> 
459
(
1.4678737370663517
1.2333385258314695
1.201422763365544
1.176225335561477
1.1622532860887866
1.158107326216152
1.1649987187475546
1.181404029711801
1.2107321261875845
1.2552515736584606
1.317053091808733
1.3578564620783948
1.3674184319021332
1.3774580447201323
1.3941896607244808
1.5241657456044264
1.506013529999645
1.4959811063677404
1.4974143496993557
1.5041026427426003
1.510790642807359
1.5091033157768048
1.50242772394586
1.5026158822815512
1.505766173772183
1.5103674948681256
1.515058900358123
1.5208861003507623
1.5277808274767446
1.536765481608406
1.5505443133524714
1.572733180438996
1.594362614047786
1.6144122673201995
1.4113432382201663
1.2546847786586934
1.2429470904588942
1.2198499184892397
1.2076243501982369
1.204405419970561
1.2086269637079157
1.217408701252262
1.2326771000889543
1.2586949750849312
1.2974306855193225
1.3472994417674997
1.3573783526831984
1.3659841631230634
1.3765019115691983
1.378414173522198
1.3827166990094384
1.5054876327607294
1.4854702548105823
1.477347757996594
1.4816479543844887
1.4806203240597393
1.4782665812422577
1.4796234955648444
1.4836135733982398
1.4888224485473656
1.4932038779526908
1.498255904943269
1.5029768462412554
1.5083780216956533
1.5140606436613382
1.5212653042857323
1.5341220204859443
1.5587532052202702
1.5800394494513037
1.587194230980166
1.4419940221600247
1.2566420946561678
1.2834393666056252
1.2751028623011527
1.2734766378479867
1.275337831882267
1.2753707064509523
1.2664104365978746
1.254562483216848
1.25161216387499
1.2651972093395252
1.299911638966223
1.3528218097394074
1.3621594001335051
1.3698088586971016
1.375067703713541
1.3428801868191311
1.3997068568016429
1.4169976171988687
1.4138174985539145
1.4220872937282951
1.4389885589512712
1.4531971834253388
1.4600380443863108
1.4789176826496433
1.4947471967780515
1.5046092234942643
1.5124890917434506
1.5194527241969034
1.5257492434291033
1.5308139509515517
1.5322176456212637
1.5387069400644309
1.5600127337480514
1.5585122224244277
1.522964716766327
1.511964495180909
1.2612493494759918
1.3172490485555262
1.3372268852644533
1.361987893802209
1.3797448569747306
1.3646971707857882
1.3143877485257387
1.2627840760292952
1.2310123884344346
1.2298221297520577
1.2577549852007706
1.304332883117856
1.348041843256629
1.3579867425048957
1.3342420368994792
1.2924666461988805
1.2650506568539492
1.2963072820889112
1.3330229246392802
1.3700852156103516
1.4085794470645356
1.446757597917072
1.481268398493238
1.5034190283852045
1.5098765810854327
1.5162526191894428
1.5249218085332152
1.536446401152652
1.5488278951366494
1.5639437559863478
1.583957084089577
1.613891613485592
1.6034331033607665
1.5858506593233241
1.5447109144428737
1.4814778255337
1.5998272557229753
1.2808872297919953
1.3491064967203228
1.399751307538855
1.478316183005124
1.5131791423839962
1.4297317419125917
1.3238311417137483
1.2461571104350988
1.202651611499092
1.197080122694285
1.2249966759392015
1.2743648621335424
1.3254380506096841
1.3530793640581884
1.3477254723764582
1.329546707311091
1.3294105764542756
1.3493480052739684
1.3838218162164133
1.426515086489274
1.4719222371817207
1.5157463405812894
1.5547378691508194
1.5852368194781246
1.601261062793984
1.6137038687593894
1.6239822013719474
1.6329825277417684
1.6393938350956472
1.6452325880024572
1.6494540750545699
1.6506839314886466
1.6325066119336367
1.596642708614702
1.5337682565412212
1.523387818118152
1.6876459578367546
1.691138954989416
1.5265892173668822
1.6912642107045985
1.3242230289204249
1.4067394931520123
1.4702426364775045
1.542793299239516
1.510725743999501
1.3947005333722537
1.2897672553665773
1.208185060142414
1.1651577390492323
1.1661412306780676
1.2050108306342526
1.2687563077951662
1.336964394769333
1.387538779798607
1.4075858551420408
1.4103630670810579
1.423582579528938
1.450801982015544
1.4901878837943034
1.5351865754144323
1.5790845145141743
1.606297329147058
1.62920866860243
1.6482979937826179
1.6630899717026848
1.6750175097884163
1.6836045010983158
1.6883747441271593
1.6902827791611372
1.6888517562284207
1.6845585674005286
1.6769257911433098
1.6576781343756521
1.6130351586951857
1.5424413072482341
1.5358076614517042
1.5684872963892431
1.5764213110668697
1.5947780056430811
1.785052083467211
1.4228203186361221
1.5719184090869123
1.565322436085089
1.5193300955208722
1.4308473698111899
1.3189516888299868
1.2123090999262593
1.138869846622017
1.1152245529224307
1.1412628534020879
1.2078020399614697
1.2995888801312019
1.3973569854888737
1.4582344151749191
1.4859480359431572
1.5074466796831554
1.5313304767010554
1.558075595079556
1.5872012343686455
1.6167989092639383
1.643525964900885
1.6664298168922094
1.6855126248716366
1.69982241551929
1.7112687753713502
1.71985266625817
1.725098000166291
1.727005322626116
1.7246211635584174
1.71985266625817
1.712222578539821
1.701253282845337
1.685035597241028
1.6474433146906797
1.5798320062013511
1.5518449022098937
1.5457119116407207
1.5253330748130118
1.6136244448237393
1.9208460728035577
1.7627652048135931
1.7185809589671108
1.6030505338010481
1.4803307398029824
1.3258201671567211
1.1771899920447788
1.0724125648422562
1.033418551674638
1.0626063468514704
1.143746425342335
1.2605361747471138
1.4027536082972518
1.4830813277210926
1.5313304767010554
1.5647596492640496
1.5867237945787587
1.610593541036261
1.636367541685379
1.661181442202531
1.685035597241028
1.7055457612794238
1.7222369446747967
1.7351110122027205
1.7451229468903215
1.7517969608866701
1.7560871375692364
1.7575171507227694
1.7565638111695032
1.7532270425871472
1.7465531340781253
1.7374949046939168
1.727005322626116
1.7112687753713502
1.6945757271163744
1.6778799187864166
1.6536405469068
1.6416174609402039
1.5853334882099517
1.5075410974513799
2.1261606291631403
2.0037633646569204
1.848766205791341
1.56377688841154
1.2132692374124114
0.9595680173172482
0.8359614025142671
0.8298698761838346
0.9190654774168959
1.0727757444490338
1.2527729094606903
1.4113978685364397
1.5170006622357781
1.5848140174461136
1.621572048998727
1.6454348009197055
1.6654755860166468
1.686466673494511
1.7084073100221522
1.727958969441206
1.738868022519688
1.7459666595918568
1.750874587719418
1.754204346647053
1.7554955028660923
1.7556058819219953
1.7537246445230807
1.7491614849082204
1.7418394959553376
1.7316703174740398
1.719722069753939
1.7066629831083129
1.6930640515618476
1.677687873984663
1.6615736390493208
1.6488219527528358
1.6413961721489898
1.6365661853903049
1.6243093154445314
1.6005440809256926
-2.9635956346859373
-2.21691641087637
-1.2518450107845065
-0.32947923531197343
0.3362999398047056
0.8349300858799383
1.1474074159175278
1.384628903946167
1.506968964626237
1.5476330448719728
1.587140075010415
1.6186356359703244
1.6423452205543407
1.6623098147643327
1.6814795302262115
1.699661326985122
1.7155993940514722
1.7277358039118962
1.7364542735505737
1.7408177544350296
1.7426828381432926
1.7427077505307038
1.740466811963705
1.7372832989497549
1.732989888681478
1.7280063809456128
1.722382157365799
1.7167710148146498
1.7117940365291617
1.7070555766927487
1.7037221242278722
1.7009384471935685
1.6997890370040398
1.7018186994562232
1.7118858534526256
1.743492640513873
1.852135476874352
1.727450415136891
-2.440551175994113
-0.828967044738657
0.229421879254361
0.7474931143433191
1.0287950121426204
1.2261122323967215
1.3659936148580052
1.4701504904465696
1.539668158776135
1.5874514575526146
1.62273089467054
1.6493805650653761
1.6702349496894646
1.6881231667849907
1.7035019509584337
1.7172606263485946
1.7283385957797837
1.736318263558552
1.7414092858347785
1.7438454966749122
1.7447913057135398
1.7443249519887418
1.7434369214302747
1.7415827427141208
1.7397005757420065
1.7372970430168384
1.7349448690195144
1.7328602127894974
1.7319816296774355
1.7335375977875096
1.7379227756769915
1.7462217570081824
1.7575825396494478
1.7684681909652011
1.783276294142005
1.8480350167354973
1.7603912036360014
1.8464733797703021
-0.5992575402662375
-0.7276969799640608
-0.6223463296378279
0.6238279339209423
1.1012525102298139
1.2859967497697842
1.394480754023321
1.4754424615121036
1.5396462830071191
1.5900254713785649
1.6292811972958712
1.6588685824878202
1.6821415070412076
1.7000742997996425
1.714907938812882
1.7269129773992886
1.7367318014997213
1.7443705565966352
1.7493209720151532
1.7526714356442545
1.7536014772269473
1.7538192138643256
1.7529972393076185
1.7517565819552026
1.7501787985547388
1.7488332493171028
1.7478092106575558
1.7467491754626494
1.746889510413629
1.747675259275235
1.7509651583252237
1.7585064831236745
1.7732109311641906
1.8024119978970017
1.828510875801619
1.831368379106933
1.8375592718043678
1.7751694344093858
1.7905384869747696
1.7036213612976059
)
;

boundaryField
{
    ".*"
    {
        type            zeroGradient;
    }
}


// ************************************************************************* //
