/*--------------------------------*- C++ -*----------------------------------*\
  =========                 |
  \\      /  F ield         | OpenFOAM: The Open Source CFD Toolbox
   \\    /   O peration     | Website:  https://openfoam.org
    \\  /    A nd           | Version:  6
     \\/     M anipulation  |
\*---------------------------------------------------------------------------*/
FoamFile
{
    version     2.0;
    format      ascii;
    class       surfaceScalarField;
    location    "2200";
    object      phi;
}
// * * * * * * * * * * * * * * * * * * * * * * * * * * * * * * * * * * * * * //

dimensions      [1 0 -1 0 0 0 0];

internalField   nonuniform List<scalar> 
852
(
-0.00303793
0.00309777
-0.00411489
0.00107697
-0.00491581
0.000800916
-0.00552831
0.000612496
-0.00592072
0.000392417
-0.00606933
0.000148608
-0.00595305
-0.000116282
-0.00556083
-0.000392218
-0.00491759
-0.000643238
-0.00408726
-0.000830337
-0.00315977
-0.000927487
-0.00223088
-0.000928891
-0.00138505
-0.000845832
-0.000660182
-0.000724864
-0.00065812
-0.000798982
0.00080268
-0.000450701
-0.000348281
0.000225812
-0.000676513
0.000759265
-0.000533453
0.00111603
-0.000356763
0.00133923
-0.000223205
0.00146004
-0.000120804
0.00151868
-5.86454e-05
0.00155097
-3.22856e-05
0.00157027
-1.93046e-05
0.00158064
-1.03685e-05
0.00158347
-2.83306e-06
0.00157692
6.55413e-06
0.00155227
2.46515e-05
0.00148609
6.61817e-05
0.00133923
0.000146858
0.0010993
0.000239929
0.000805049
0.000294251
0.000810044
-0.00216246
0.00542099
-0.00320526
0.00211976
-0.00402507
0.00162073
-0.00462627
0.00121369
-0.00501116
0.000777309
-0.00516484
0.00030229
-0.00506365
-0.000217476
-0.00470279
-0.000753073
-0.00411936
-0.00122668
-0.00338373
-0.00156596
-0.00258224
-0.00172898
-0.00179515
-0.00171599
-0.00109412
-0.00154687
-0.000557155
-0.00126182
-0.00033095
-0.000884325
4.08108e-05
-0.000371813
4.07593e-05
0.000391276
0.000422035
0.000828034
-0.000785039
0.00109487
-0.000943351
0.00132651
-0.000765094
0.0015038
-0.000534051
0.00161044
-0.000329843
0.00162751
-0.000137873
0.00163165
-6.27856e-05
0.00163674
-3.7371e-05
0.00164098
-2.3549e-05
0.00164374
-1.31236e-05
0.001645
-4.09956e-06
0.0016439
7.65103e-06
0.00163668
3.18792e-05
0.00159273
0.000110125
0.00140556
0.000334031
0.00108616
0.000559332
0.000691687
0.000688721
0.00151441
-0.00150924
0.00717581
-0.002406
0.00301653
-0.00312834
0.00234307
-0.00363799
0.00172334
-0.00396693
0.00110625
-0.00409465
0.000430014
-0.00397753
-0.000334601
-0.00361338
-0.00111722
-0.00306301
-0.00177704
-0.00240565
-0.00222332
-0.0017215
-0.00241313
-0.00106854
-0.00236894
-0.000494205
-0.0021212
-3.63646e-05
-0.00171966
0.000267406
-0.0011881
0.000427172
-0.000531579
0.000467932
0.00160605
-0.00117272
0.00183563
-0.00101462
0.0017935
-0.000901218
0.00178482
-0.000756417
0.00180917
-0.000558403
0.00183241
-0.000353085
0.00169469
0.00163206
0.00159485
0.00157145
0.00155848
0.00155454
0.00156234
0.00159437
0.00170465
0.00139621
0.000642476
0.0010287
0.000926841
0.000582105
0.00113532
0.00211566
-0.00104956
0.00854315
-0.00175755
0.00372452
-0.00222775
0.00281327
-0.00255152
0.0020471
-0.00275052
0.00130526
-0.00278444
0.000463936
-0.00258779
-0.000531254
-0.0021886
-0.00151641
-0.00167921
-0.00228643
-0.00113436
-0.00276816
-0.000613198
-0.0029343
-0.000141024
-0.00284112
0.000268095
-0.00253032
0.000612434
-0.002064
0.000926135
-0.0015018
0.00129852
-0.000903966
0.00215525
-0.000388801
0.00262027
-0.000454778
0.00218503
-0.000737482
0.00204076
-0.000870349
0.00191811
-0.000778575
0.001814
-0.000652299
0.00175793
-0.000502333
0.00173249
-0.00032765
0.00187419
-0.000141853
0.0019652
-9.11653e-05
0.00203787
-7.28186e-05
0.00209152
-5.38117e-05
0.00210976
-1.83861e-05
0.00206987
3.9734e-05
0.00194667
0.000123044
0.00170739
0.000239124
0.00129533
0.000411911
0.0011443
0.00079351
0.000819025
0.00125211
0.000326549
0.00162779
0.00246723
-0.000732299
0.00965455
-0.00126728
0.0042595
-0.0013505
0.00289649
-0.00138624
0.00208284
-0.00136915
0.00128816
-0.00119323
0.000288016
-0.000832511
-0.000891968
-0.000398849
-0.00195007
1.96134e-05
-0.0027049
0.000376324
-0.00312487
0.00065994
-0.00321792
0.000875689
-0.00305687
0.00104483
-0.00269946
0.00119278
-0.00221195
0.00135192
-0.00166094
0.00156926
-0.0011213
0.00188485
-0.000704398
0.00200549
-0.000575413
0.00190426
-0.000636253
0.00171312
-0.000679213
0.00155304
-0.000618487
0.00142325
-0.000522511
0.00133594
-0.00041503
0.00130594
-0.000297645
0.00136063
-0.000196543
0.00142306
-0.000153597
0.00148873
-0.000138491
0.00155243
-0.000117513
0.00160111
-6.70659e-05
0.00161305
2.78035e-05
0.00156759
0.000168494
0.00145407
0.000352651
0.00127511
0.00059087
0.00111544
0.000953182
0.000939533
0.00142801
0.000538744
0.00202858
0.000414004
0.00259197
-0.00111117
0.00152496
-0.00157499
0.000463617
-0.00152094
-0.000635891
0.0107213
-0.000996526
0.00462014
-0.000538376
0.00243834
-0.00010621
0.00165067
0.000277168
0.000904782
0.000781303
-0.000216119
0.00130556
-0.00141622
0.00169011
-0.00233462
0.00191293
-0.00292772
0.00199285
-0.00320479
0.00197224
-0.0031973
0.00188007
-0.0029647
0.0017534
-0.00257279
0.00162925
-0.0020878
0.00153862
-0.00157031
0.00150321
-0.00108588
0.00151317
-0.000714356
0.00146732
-0.000529568
0.00132402
-0.000492956
0.00112796
-0.00048315
0.000954465
-0.000444991
0.000822189
-0.000390235
0.000738601
-0.000331442
0.000713405
-0.000272449
0.000745249
-0.000228387
0.000806686
-0.000215034
0.00088398
-0.000215785
0.000970799
-0.000204332
0.00105995
-0.00015622
0.00113547
-4.77154e-05
0.00117856
0.000125402
0.00118979
0.000341424
0.00117763
0.00060303
0.00119213
0.000938679
0.00128675
0.0013334
0.00146934
0.00184599
0.00196148
0.00209983
0.00224407
0.00124238
0.00185437
0.00085331
0.000398137
-0.000664174
0.0118636
-0.000519117
0.00447508
0.0007111
0.00120812
0.00163205
0.000729718
0.00248243
5.44e-05
0.00326963
-0.00100331
0.00375518
-0.00190178
0.00393566
-0.0025151
0.00385471
-0.00284677
0.00357508
-0.00292516
0.00316806
-0.00279028
0.00269705
-0.00249369
0.00221963
-0.00209537
0.00178317
-0.00165134
0.00141718
-0.00120433
0.00113527
-0.000803977
0.000929722
-0.000508806
0.000752923
-0.000352769
0.000567056
-0.000307089
0.000383194
-0.000299289
0.000228822
-0.000290619
0.000116491
-0.000277904
5.02137e-05
-0.000265165
3.30694e-05
-0.000255304
5.98776e-05
-0.000255195
0.000114447
-0.000269603
0.00018589
-0.000287228
0.00027266
-0.000291101
0.000379025
-0.000262586
0.000509554
-0.000178245
0.00064461
-9.65295e-06
0.000774689
0.000211345
0.000916698
0.000461021
0.00111009
0.00074529
0.00140811
0.00103538
0.00188565
0.00136845
0.00262506
0.00136043
0.00322321
0.000644226
0.00328419
0.00079233
0.00375143
0.00276642
0.00963253
0.00354424
0.00369726
0.00416124
0.000591127
0.00515672
-0.000265763
0.0060789
-0.000867786
0.0065473
-0.00147171
0.00657339
-0.00192786
0.00622795
-0.00216966
0.00559991
-0.00221874
0.00478859
-0.00211385
0.00389274
-0.00189443
0.00299534
-0.00159629
0.00216345
-0.00126348
0.00144446
-0.000932348
0.000858846
-0.000618715
0.000415309
-0.00036044
0.000105531
-0.000199028
-0.000113095
-0.000134143
-0.000285951
-0.000134233
-0.000429862
-0.000155378
-0.000544282
-0.000176198
-0.000627478
-0.000194709
-0.000679922
-0.000212721
-0.000703008
-0.000232218
-0.000702253
-0.000255951
-0.000687852
-0.000284003
-0.000665681
-0.0003094
-0.000634261
-0.000322521
-0.000583727
-0.00031312
-0.000492946
-0.000269025
-0.000330678
-0.000171921
-0.000127227
7.89411e-06
0.000100919
0.000232875
0.000383577
0.000462632
0.000726626
0.000692329
0.00118054
0.000914532
0.00165793
0.000883042
0.00179002
0.000512129
0.000961509
0.00162084
0.00500639
0.0102257
0.0139191
0.012983
0.00152725
0.0123598
0.00035739
0.0116113
-0.000119256
0.010575
-0.000435434
0.00926959
-0.000622459
0.00780705
-0.00070711
0.00628824
-0.000699936
0.00480032
-0.000625925
0.00342234
-0.000516445
0.00220523
-0.000379181
0.00118299
-0.000241241
0.000365553
-0.000114907
-0.000238976
-1.41858e-05
-0.000631489
3.2073e-05
-0.000863536
3.30184e-05
-0.00101097
1.3296e-05
-0.0011254
-1.98094e-05
-0.00122393
-5.68445e-05
-0.00130911
-9.10251e-05
-0.00138162
-0.00012219
-0.00144375
-0.000150597
-0.00149903
-0.000176931
-0.00155345
-0.000201533
-0.00161516
-0.000222293
-0.0016916
-0.000232965
-0.00179005
-0.000224072
-0.00191966
-0.000183502
-0.00209252
-9.61694e-05
-0.00231607
5.16287e-05
-0.00257571
0.000267538
-0.00291327
0.000570432
-0.00343024
0.000979604
-0.00422445
0.00148654
-0.00535074
0.00204082
-0.00691688
0.00244918
-0.00877091
0.00236616
-0.00813929
0.000989225
-0.00280681
0.0043736
0.00338777
0.00336047
0.00137052
0.00365717
-0.000415962
0.0036012
-0.000379461
0.00314853
-0.000169791
0.00246621
-2.47874e-05
0.0016668
9.94794e-05
0.00084422
0.00019665
7.41803e-05
0.000253595
-0.000573365
0.000268364
-0.00105963
0.000245022
-0.00139078
0.000216242
-0.00158752
0.000182559
-0.00169717
0.000141722
-0.00176587
0.000101719
-0.00181901
6.64327e-05
-0.00187343
3.4609e-05
-0.00193575
5.47823e-06
-0.00200403
-2.27479e-05
-0.00207568
-5.05314e-05
-0.0021524
-7.38856e-05
-0.00223705
-9.22776e-05
-0.00233314
-0.00010544
-0.00244359
-0.000111849
-0.00256871
-0.000107842
-0.00270516
-8.76187e-05
-0.00284437
-4.4297e-05
-0.00297123
3.06962e-05
-0.00307732
0.000157717
-0.00316705
0.000357268
-0.00325121
0.000654595
-0.00334177
0.00107016
-0.00344279
0.00158756
-0.00349522
0.00209325
-0.00340716
0.00236112
-0.0029787
0.0019377
-0.00165091
-0.000338569
-0.00437289
-0.00080085
0.0042728
-0.00034685
0.000916518
-0.00101569
0.000252873
-0.00152709
0.00013194
-0.00187334
0.000176463
-0.0021312
0.000233069
-0.00231514
0.000283422
-0.00244362
0.000325134
-0.0025276
0.000337576
-0.00257273
0.000313493
-0.00259081
0.000263095
-0.00258192
0.000207352
-0.00255389
0.000154538
-0.00252073
0.000108554
-0.00249206
7.30566e-05
-0.00247272
4.70884e-05
-0.00246543
2.73159e-05
-0.00247096
1.10149e-05
-0.00248741
-6.3018e-06
-0.00251502
-2.29231e-05
-0.00255297
-3.59312e-05
-0.00260043
-4.48212e-05
-0.00265635
-4.95233e-05
-0.00271893
-4.92674e-05
-0.00278459
-4.21793e-05
-0.00284711
-2.50984e-05
-0.00289771
6.30127e-06
-0.00292133
5.43197e-05
-0.00289444
0.000130822
-0.00279001
0.000252843
-0.00257257
0.000437155
-0.00221349
0.000711072
-0.00171593
0.00109
-0.0010637
0.00144103
-3.52312e-05
0.00133265
0.0012787
0.000623763
0.00159186
-0.000651731
-0.00268768
-0.00789916
-0.011158
-0.0068298
-0.00588499
-0.00561276
-0.00546524
-0.00527555
-0.0050309
-0.00473705
-0.00440224
-0.00405539
-0.00373272
-0.00346029
-0.00324334
-0.00307891
-0.00296017
-0.00287665
-0.00281886
-0.00278064
-0.00275858
-0.00275376
-0.00276557
-0.00279043
-0.00282428
-0.00286298
-0.00290159
-0.00293333
-0.00294823
-0.00293201
-0.00286807
-0.00272797
-0.00246622
-0.00202054
-0.00130135
-0.000203695
0.00124435
0.00258371
0.00321416
0.00256938
)
;

boundaryField
{
    floor
    {
        type            calculated;
        value           nonuniform List<scalar> 
29
(
0
0
0
0
0
0
0
0
0
0
0
0
0
0
0
0
0
0
0
0
-4.99492e-06
-1.26803e-05
-1.91455e-05
-2.50239e-05
-2.06174e-06
-3.69829e-06
-1.06314e-05
-1.12933e-05
-1.02347e-05
)
;
    }
    ceiling
    {
        type            calculated;
        value           nonuniform List<scalar> 
43
(
-5.9377e-05
-5.71488e-05
-5.53616e-05
-2.82982e-05
-1.93519e-05
-1.55798e-05
-1.32316e-05
-1.15775e-05
-1.04302e-05
-9.67772e-06
-9.2716e-06
-9.18025e-06
-9.32829e-06
-9.59603e-06
-9.89626e-06
-1.01895e-05
-1.04619e-05
-1.07042e-05
-1.09033e-05
-1.10438e-05
-1.11152e-05
-1.11185e-05
-1.10678e-05
-1.09696e-05
-1.08296e-05
-1.06523e-05
-1.04412e-05
-1.01983e-05
-9.92331e-06
-9.61391e-06
-9.27738e-06
-8.91442e-06
-8.52561e-06
-8.10956e-06
-7.66239e-06
-7.01723e-06
-6.71005e-06
-6.68441e-06
-6.952e-06
-6.61186e-06
6.28645e-06
3.86176e-06
-8.41821e-05
)
;
    }
    sWall
    {
        type            calculated;
        value           uniform -0.000279456;
    }
    nWall
    {
        type            calculated;
        value           nonuniform List<scalar> 6(-5.42488e-05 -6.4706e-05 -6.91048e-05 -8.48278e-05 -9.33517e-05 -0.000111684);
    }
    sideWalls
    {
        type            empty;
        value           nonuniform 0();
    }
    glass1
    {
        type            calculated;
        value           nonuniform List<scalar> 9(-5.98391e-05 -0.000160758 -0.00024558 -0.000317778 -0.000379098 -0.000430849 -0.000478095 -0.000535392 -0.000599444);
    }
    glass2
    {
        type            calculated;
        value           nonuniform List<scalar> 2(-0.000293453 -0.000326082);
    }
    sun
    {
        type            calculated;
        value           uniform 0;
    }
    heatsource1
    {
        type            calculated;
        value           nonuniform List<scalar> 3(2.05045e-07 2.04941e-07 2.0496e-07);
    }
    heatsource2
    {
        type            calculated;
        value           nonuniform List<scalar> 4(5.14192e-08 5.15304e-08 0 0);
    }
    Table_master
    {
        type            calculated;
        value           nonuniform List<scalar> 9(-1.53783e-07 -1.53876e-07 -1.53909e-07 -1.5393e-07 -1.53946e-07 -1.53956e-07 -1.5396e-07 -1.53954e-07 -1.5392e-07);
    }
    Table_slave
    {
        type            calculated;
        value           nonuniform List<scalar> 9(1.53642e-07 1.53663e-07 1.5364e-07 1.53621e-07 1.53616e-07 1.53619e-07 1.53639e-07 1.53688e-07 1.53779e-07);
    }
    inlet
    {
        type            calculated;
        value           uniform -0.00623411;
    }
    outlet
    {
        type            calculated;
        value           nonuniform List<scalar> 2(0.00823799 0.00331595);
    }
}


// ************************************************************************* //
