/*--------------------------------*- C++ -*----------------------------------*=========                 |
  \      /  F ield         | OpenFOAM: The Open Source CFD Toolbox
   \    /   O peration     | Website:  https://openfoam.org
    \  /    A nd           | Version:  6
     \/     M anipulation  |
\*---------------------------------------------------------------------------*/
FoamFile
{
    version     2.0;
    format      ascii;
    class       volScalarField;
    location    "2200";
    object      PPD;
}
// * * * * * * * * * * * * * * * * * * * * * * * * * * * * * * * * * * * * * //

dimensions      [0 0 0 0 0 0 0];

internalField   nonuniform List<scalar> 
459
(
59.29240226703263
47.5852831101108
46.18688274435897
44.96317351845822
44.141106512181054
43.63981022979747
43.49074771132261
43.6865490063273
44.217858883505194
45.09227394358353
46.44747959368233
48.34732859796382
50.88431478666177
52.95146868663741
53.18563452682695
56.64486882832577
55.94336119015445
55.70938316867928
55.787382671009546
55.94336119015445
56.07332104102042
55.98163459371539
55.744927217167245
55.713868657326934
55.76249110265908
55.81623219233605
55.91899136185948
56.051515218847015
56.23359664120837
56.49457057269328
57.005794806049224
57.47522553757794
57.656680262458295
58.278219439484815
57.26335299412827
48.71393484071481
48.25568127430762
47.13281718172397
46.47531667623372
46.102431351892676
45.97165790444408
46.09853548560632
46.333249242823825
46.79734471990449
47.57565525748774
48.83571279826451
50.67758644321885
52.50925280077718
52.56127033276568
52.53526127666547
52.45723763141653
54.6398496714262
55.44933994405097
55.26727286795118
55.35270829270772
55.03278868514098
54.794212075142596
54.71379641343815
54.71839473667859
54.779584180316434
54.82268795663196
54.83145512429954
54.8702104996108
54.8919889835735
54.95061573710245
55.08780731285225
55.50590388016415
56.46306520648941
56.74873255232468
56.32383629906151
59.53528553556793
48.86780662356109
50.19738085733774
49.6794643194557
49.539603304816744
49.5163531578087
49.58932594015079
49.62933691910845
49.419870074460114
49.03777752073698
48.855092066963245
49.17566809246114
50.12541907864946
51.798284426375986
52.405224908216084
52.53526127666547
52.587279958631115
49.77915704809815
52.00167620051084
52.7071089461301
53.201042391251654
53.72350767354298
54.09851668780482
54.25579363230861
54.68790134094009
54.988374671928526
55.09897728227485
55.15653365248357
55.18376711722935
55.18010121108348
55.12716996404319
54.86378024041577
54.9647477955719
55.92271691021608
55.49344769087868
52.967301210014675
63.60237013861548
49.16447585929961
51.708332279106095
52.25177594121143
53.22222724319579
54.08635952276282
54.729638105725286
54.51761918309197
53.14610826137856
51.195933185491505
49.54677365022844
48.67642494435232
48.81278594165402
49.901261486452285
51.60851379202813
52.587279958631115
51.83557373701025
49.63628696386737
49.55241473112269
51.03899509851168
52.458644412349884
53.61383737270059
54.626243189695245
55.33439034146867
55.59117601478975
55.506110806748374
55.47295882384202
55.502309178574244
55.57143377469263
55.74850629222139
56.08457378557245
56.740778600920024
57.95162374117735
57.56732965713173
56.74091306940245
54.41923997024661
50.59235698007174
68.28237004444647
50.28341305988651
53.18000646188356
54.748670438988945
57.33159097258139
60.25515803422831
61.623120743537484
59.25389834375644
55.41781101519161
51.65286746018709
48.94812384516939
47.46337989674202
47.26560278637415
48.13949201637464
49.70432431086291
51.17766584466139
51.557869485623804
51.41313238991796
51.851354539427476
53.19582540144715
54.78831029204072
56.25238626754903
57.468862467692354
58.35584246221858
58.82122595234819
58.986270516761536
58.9842863388924
58.95895300527611
58.89884960084029
58.78157174078936
58.740632647708004
58.78810426332316
58.88333333912695
58.13229120737096
56.69236575852595
53.46873313860726
53.09849760645789
60.11032893558555
59.43209682677057
50.58410694124231
72.73653442615068
52.585824484470784
56.03933093260571
57.65408035294174
61.36743973413411
62.87111768856312
62.43491031288124
58.19497698201784
53.99221378920068
50.113691017712185
47.249828152448856
45.78856342651518
45.75958242396792
46.97311098515934
48.991104354401486
51.180843734180854
52.87925189098908
54.07670770153015
55.357380376225045
57.016386732392206
57.94167070719422
58.743705729421606
59.36334241720035
59.87872385165711
60.264617434423236
60.59858129112734
60.82951411301744
60.98334069005168
61.034592852606615
60.98334069005168
60.803866243268835
60.52155340656027
60.09579688393356
58.701588990513024
56.84189933335599
53.45396071339495
53.31447398906925
54.12919567183147
54.08398745634047
54.7756799371572
76.93767691549525
57.78970227766957
64.19757065185901
62.78775138873065
62.61402118235258
61.30905930517523
58.49386451278875
54.594715302761465
50.33876322453601
46.66374078107693
44.30676532930739
43.59176548713973
44.50647113966875
46.706455543030174
49.76503259915181
53.14115625166467
55.39732365849017
56.69680294256888
57.83806012228306
58.84706200473749
59.69844807235212
60.39311897158587
60.93207678780482
61.341854412863064
61.623120743537484
61.85295975285139
61.98053292453909
62.05703660296716
62.00603752445123
61.878481040597244
61.572009850583065
61.21388171282939
60.7525619388297
60.12910225986408
57.92314498533792
54.79851742986973
53.560874900947255
52.990213041109705
51.590257906569306
56.19933209211417
82.51338833683158
74.25621431286525
72.10746123492632
67.1226459779909
64.09310573264551
59.79049727958375
54.2485819365852
48.503050374858084
43.82169566828815
40.980054932166034
40.210076790932874
41.48958624978722
44.377181680175
48.4256998906485
53.274381656199935
55.63137722566909
57.397437233541886
58.82122595234819
59.93020918881639
60.7525619388297
61.418601070835216
61.92951365770362
62.28636330546677
62.56626685687529
62.74416086040238
62.8457337567202
62.87111768856312
62.8457337567202
62.74416086040238
62.56626685687529
62.31182674723816
61.878481040597244
61.46974992718945
60.93207678780482
60.34172633259947
59.749967548473094
58.725119796426895
58.10222976709785
54.77829417032043
50.12479022177705
89.26173651015192
84.95886944685157
78.33001895421214
69.85587640009318
59.220947897928404
47.66355040152131
38.77487454674089
33.57020819467948
31.897712614721172
33.095820824147665
36.64850664909642
41.995355411110104
48.42517632566132
53.055538722301215
56.04733076082667
58.43344908772439
59.98168457547923
61.034592852606615
61.80190727330345
62.388196027037736
62.82034609717135
62.94917038944044
62.88040250641888
62.80497611580164
62.650895533693635
62.464905836419604
62.200486729222185
61.844393950777196
61.43281351743832
60.912714723966765
60.28860812047315
59.625643954352604
59.016723847953706
58.24151458955022
57.36327799459273
56.61170321602551
56.08781500079793
55.806126107347595
55.23207002397912
53.57279629455836
98.97773883153964
67.82525291214354
31.798886815930985
8.140344781421078
5.584590641962265
12.53041105570216
24.039543396574217
35.937545034108496
44.27219828453233
50.97615385411537
55.05916445247253
57.83806012228306
59.12345833615917
59.987424354012504
60.63191017708057
61.10427102960324
61.41368312610035
61.554125747020684
61.59849696211407
61.53837789783436
61.42722140984042
61.257555770147235
61.07158541874096
60.80995207143658
60.52330185372276
60.21842892934253
59.909573392363846
59.64237703069989
59.41198013947136
59.267635998070304
59.17523010061969
59.0905381062714
59.06973795482462
59.17929662322453
59.7198137954938
61.62461988194987
65.42569733265358
57.02611401713388
92.57783354816688
25.938685179025157
5.038540779497168
11.862556570554645
22.041294857349442
30.529215034349576
37.93159541921816
44.09072306291191
49.01931394839039
52.747792089470856
55.303347924003106
57.05511287454718
58.32495694212527
59.18794055445964
59.795494805345555
60.18860502153712
60.447235235695295
60.6068786334751
60.68501867838877
60.73094877787393
60.70887354572225
60.668766827931236
60.61018867052353
60.53415985468787
60.41846163963178
60.32412566283983
60.2389562087045
60.18820118309292
60.20400268305268
60.38879780422125
60.7888365026887
61.373288339937886
62.012525722125446
62.55281460096163
63.18429522390725
65.20764079014268
61.74756329145535
59.11421479584828
20.692098316509046
26.169180934297287
21.369073203268485
7.798733495402573
21.390442537664427
30.41749364545116
36.775114564753494
42.03606902770113
46.44997823944842
50.10984147382315
53.064720359304346
55.374060593464044
57.03063591275872
58.14452547716716
58.87761261166639
59.29869268914596
59.49587903171295
59.56458705784633
59.56850443066947
59.53644104965431
59.51234512965687
59.49635962613465
59.47361900697996
59.49640141436185
59.50856283297902
59.53833075502548
59.61865038513396
59.708087306135845
59.85463542151588
60.11236483314827
60.490255603549585
61.1360527138512
62.25494842182696
64.28724085006644
65.73772643622686
66.0608243063173
64.31696534513529
62.08851368115097
59.86451573228799
60.13022549019957
)
;

boundaryField
{
    ".*"
    {
        type            zeroGradient;
    }
}


// ************************************************************************* //
