/*--------------------------------*- C++ -*----------------------------------*\
  =========                 |
  \\      /  F ield         | OpenFOAM: The Open Source CFD Toolbox
   \\    /   O peration     | Website:  https://openfoam.org
    \\  /    A nd           | Version:  6
     \\/     M anipulation  |
\*---------------------------------------------------------------------------*/
FoamFile
{
    version     2.0;
    format      ascii;
    class       volScalarField;
    location    "600";
    object      alphat;
}
// * * * * * * * * * * * * * * * * * * * * * * * * * * * * * * * * * * * * * //

dimensions      [1 -1 -1 0 0 0 0];

internalField   nonuniform List<scalar> 
459
(
0.000884942
0.00092817
0.000919274
0.000949296
0.000974701
0.000996018
0.00101425
0.0010304
0.00104547
0.00106011
0.00107044
0.00107532
0.0010748
0.0010715
0.00106713
0.0007934
0.000739751
0.000696578
0.00066462
0.000638994
0.000615474
0.000591341
0.000568791
0.000547525
0.000527361
0.00050822
0.000490029
0.000472673
0.000455942
0.000439445
0.000422558
0.000404161
0.000391717
0.000361915
0.00132461
0.00216139
0.0018582
0.00215051
0.0023117
0.00248117
0.00264867
0.00280016
0.00291504
0.00297548
0.00299134
0.00292971
0.00274325
0.00236858
0.0017491
0.00109657
0.00102028
0.00093203
0.00134466
0.00159908
0.00179405
0.00191198
0.00191135
0.00167698
0.00151223
0.00137817
0.00126488
0.00116622
0.00107818
0.000996756
0.000916647
0.000833166
0.000758183
0.000693119
0.000830902
0.000465728
0.00172673
0.00318407
0.00203907
0.00298098
0.00321808
0.00338578
0.00351338
0.00360999
0.00368254
0.00372745
0.00375486
0.00373544
0.00363061
0.00339597
0.00297574
0.00229125
0.00119704
0.00104793
0.00214579
0.00262556
0.00286929
0.00293771
0.00259787
0.000716938
0.000638275
0.000579131
0.000533698
0.000497917
0.000469092
0.000445585
0.000426707
0.000413112
0.00047113
0.000554349
0.000950734
0.000546494
0.00214504
0.00476682
0.00196235
0.00329942
0.00366198
0.00378132
0.00383144
0.00385129
0.00386769
0.00389052
0.00392422
0.00394478
0.00391991
0.00381938
0.00361019
0.00322793
0.00248893
0.00120054
0.002637
0.00325436
0.00343257
0.00349499
0.00346051
0.00297173
0.000765392
0.000724067
0.000706268
0.000696165
0.000684429
0.000665093
0.000640481
0.000613434
0.000579732
0.000553497
0.000571008
0.00114981
0.000609023
0.00257828
0.00692258
0.00237945
0.00310784
0.00381721
0.00393487
0.00393084
0.0038907
0.00386395
0.00387934
0.0039325
0.00399785
0.00402819
0.00398131
0.00382486
0.00359691
0.00351114
0.00372693
0.00375551
0.00375524
0.00368163
0.0036423
0.00362449
0.00352855
0.00313813
0.00306009
0.00303747
0.00300154
0.00292635
0.0027972
0.00255264
0.00219904
0.00178451
0.00135079
0.000994548
0.00108786
0.000770876
0.000788639
0.000932947
0.0010381
0.0030279
0.00927911
0.00413226
0.00271884
0.00353113
0.003865
0.00393835
0.00390524
0.00383678
0.00381217
0.00390013
0.00401672
0.00409865
0.00409318
0.00392566
0.0035699
0.00329097
0.0036837
0.00392936
0.00385422
0.00369467
0.00360537
0.0035984
0.00362249
0.00362698
0.00364487
0.00363932
0.00359641
0.00351607
0.00340206
0.00324132
0.00295529
0.00255066
0.00204586
0.00155499
0.00115076
0.000974736
0.000915011
0.00137222
0.00108638
0.00348294
0.0112221
0.00761965
0.00399174
0.00299021
0.00302149
0.00337625
0.00368974
0.00388922
0.0037879
0.00391286
0.00404664
0.0041489
0.0041754
0.0040262
0.0035851
0.00307825
0.00355036
0.00400877
0.00390364
0.00369406
0.00358131
0.00356906
0.00360273
0.00363928
0.00365619
0.00363592
0.00358197
0.00350954
0.00343216
0.00335911
0.00321058
0.00289276
0.00243774
0.001994
0.00155617
0.00132753
0.00131005
0.00141025
0.0012175
0.00359835
0.011119
0.00923363
0.0074045
0.00553166
0.00425387
0.0037222
0.00369864
0.00389582
0.00396381
0.00403046
0.00411416
0.00419227
0.00421309
0.00406095
0.0035687
0.00291029
0.00343546
0.00410502
0.00397933
0.00373671
0.00361173
0.0035778
0.00357246
0.00355779
0.00351723
0.00345111
0.00337472
0.00331164
0.00328457
0.00330749
0.0033563
0.00324298
0.00287411
0.00258258
0.00250136
0.00275176
0.00351458
0.0047993
0.00187811
0.00353076
0.00429282
0.00491571
0.00516179
0.00509239
0.00475207
0.00439708
0.00417093
0.00407225
0.00404702
0.0040887
0.00416026
0.0042195
0.00421162
0.00401519
0.00342634
0.00262918
0.00333731
0.00427119
0.00409968
0.00383168
0.00369872
0.00363413
0.00357521
0.00349343
0.00337916
0.00323691
0.00308207
0.00293415
0.00280833
0.0027105
0.00263902
0.00258965
0.00256936
0.00261334
0.00270474
0.00275662
0.00268183
0.00249569
0.00175805
0.00280572
0.00493194
0.00514136
0.00504675
0.00486878
0.00470888
0.00459874
0.00451154
0.00443745
0.00435857
0.00425223
0.00408594
0.00374661
0.00301631
0.00216061
0.00325628
0.00454214
0.00426109
0.003991
0.00389045
0.00382911
0.00375108
0.00364226
0.00349905
0.00332741
0.00314355
0.00297015
0.00283125
0.00274758
0.00272572
0.00274946
0.00281066
0.00290433
0.00300743
0.00309394
0.00317898
0.00285552
0.00151564
0.00294307
0.00569749
0.00580145
0.00555686
0.00531188
0.00507769
0.00483726
0.00459382
0.0042966
0.00394405
0.003574
0.00320146
0.00278589
0.00218327
0.00157688
0.00294302
0.00391098
0.00381435
0.00368649
0.00364973
0.00360765
0.00353886
0.00344826
0.00334417
0.0032384
0.00314381
0.00306881
0.00301287
0.00297729
0.00299191
0.00305185
0.00314619
0.00325994
0.00338507
0.00354208
0.00365103
0.00246838
0.00155969
0.00251803
0.00266279
0.00278483
0.00293527
0.00274073
0.00254847
0.00234332
0.00216692
0.0019996
0.00184223
0.0017041
0.00158436
0.00147389
0.00136846
0.00126547
0.00115875
0.00100196
0.00100733
0.00105315
0.00102386
0.00101519
0.001011
0.00100786
0.00100598
0.00100684
0.00101199
0.00102287
0.00104072
0.0010668
0.00110294
0.0011506
0.00120747
0.00127442
0.00135117
0.00143732
0.00153923
0.00157428
0.00145351
0.00134576
0.00147628
)
;

boundaryField
{
    floor
    {
        type            compressible::alphatWallFunction;
        Prt             0.85;
        value           nonuniform List<scalar> 
29
(
0.000151652
0.000112769
0.000104972
9.86482e-05
9.3937e-05
9.01395e-05
8.66375e-05
8.30272e-05
7.96373e-05
7.64251e-05
7.33649e-05
7.04466e-05
6.76602e-05
6.49897e-05
6.24035e-05
5.98419e-05
5.72069e-05
5.43211e-05
5.23595e-05
4.76294e-05
4.76288e-05
6.39149e-05
7.62639e-05
8.56679e-05
0.00015165
0.000112767
0.000132632
0.000148973
0.00017017
)
;
    }
    ceiling
    {
        type            compressible::alphatWallFunction;
        Prt             0.85;
        value           nonuniform List<scalar> 
43
(
0.00034357
0.000361909
0.000377293
0.000396285
0.000371912
0.000347627
0.000321484
0.000298802
0.000277102
0.000256511
0.000238277
0.00022234
0.000207518
0.000193256
0.000179203
0.000164506
0.000142636
0.00014339
0.000149828
0.000145722
0.000144503
0.000143914
0.000143472
0.000143208
0.000143329
0.000144053
0.000145582
0.000148087
0.000151737
0.000156779
0.0001634
0.000171259
0.000180456
0.000190934
0.000202615
0.000216332
0.000221026
0.000204803
0.000190202
0.000207882
0.000470299
0.000562838
0.000397015
)
;
    }
    sWall
    {
        type            compressible::alphatWallFunction;
        Prt             0.85;
        value           uniform 0.000342292;
    }
    nWall
    {
        type            compressible::alphatWallFunction;
        Prt             0.85;
        value           nonuniform List<scalar> 6(0.000147354 0.0001541 0.000172259 0.000212801 0.000218705 0.000207514);
    }
    sideWalls
    {
        type            empty;
    }
    glass1
    {
        type            compressible::alphatWallFunction;
        Prt             0.85;
        value           nonuniform List<scalar> 9(0.000122243 0.000182464 0.000235734 0.000289845 0.000344805 0.000400893 0.000456832 0.000471042 0.00046304);
    }
    glass2
    {
        type            compressible::alphatWallFunction;
        Prt             0.85;
        value           nonuniform List<scalar> 2(0.000258927 0.000243295);
    }
    sun
    {
        type            compressible::alphatWallFunction;
        Prt             0.85;
        value           nonuniform List<scalar> 
14
(
0.000125941
0.00013208
0.000130814
0.000135076
0.000138669
0.000141676
0.000144242
0.00014651
0.000148622
0.000150671
0.000152116
0.000152797
0.000152725
0.000152262
)
;
    }
    heatsource1
    {
        type            compressible::alphatWallFunction;
        Prt             0.85;
        value           nonuniform List<scalar> 3(0.000112249 0.000132939 0.000147776);
    }
    heatsource2
    {
        type            compressible::alphatWallFunction;
        Prt             0.85;
        value           nonuniform List<scalar> 4(0.000155945 0.000145271 0.000145269 0.000169871);
    }
    Table_master
    {
        type            compressible::alphatWallFunction;
        Prt             0.85;
        value           nonuniform List<scalar> 9(0.000101804 9.01974e-05 8.13555e-05 7.44878e-05 6.90277e-05 6.45931e-05 6.09511e-05 5.80086e-05 5.58792e-05);
    }
    Table_slave
    {
        type            compressible::alphatWallFunction;
        Prt             0.85;
        value           nonuniform List<scalar> 9(0.000108877 0.000102849 0.00010024 9.87554e-05 9.7028e-05 9.41738e-05 9.05259e-05 8.64974e-05 8.14471e-05);
    }
    inlet
    {
        type            fixedValue;
        value           uniform 1.94e-05;
    }
    outlet
    {
        type            zeroGradient;
    }
}


// ************************************************************************* //
