/*--------------------------------*- C++ -*----------------------------------*\
  =========                 |
  \\      /  F ield         | OpenFOAM: The Open Source CFD Toolbox
   \\    /   O peration     | Website:  https://openfoam.org
    \\  /    A nd           | Version:  6
     \\/     M anipulation  |
\*---------------------------------------------------------------------------*/
FoamFile
{
    version     2.0;
    format      ascii;
    class       surfaceScalarField;
    location    "600";
    object      phi;
}
// * * * * * * * * * * * * * * * * * * * * * * * * * * * * * * * * * * * * * //

dimensions      [1 0 -1 0 0 0 0];

internalField   nonuniform List<scalar> 
852
(
-0.00284344
0.0029104
-0.00348305
0.000639646
-0.00414638
0.000663356
-0.00475609
0.000609747
-0.00527571
0.000519649
-0.00568871
0.000413036
-0.0059787
0.000290019
-0.00612513
0.000146461
-0.00610301
-2.20847e-05
-0.00588037
-0.000222606
-0.00543228
-0.000448064
-0.00474674
-0.000685509
-0.00378826
-0.000958452
-0.00236671
-0.00142152
-0.00236387
0.000909043
-0.000905556
0.00145706
-0.000547974
0.00173058
-0.000273486
0.00188854
-0.000157919
0.00199216
-0.000103572
0.00204694
-5.47366e-05
0.00205097
-3.98672e-06
0.00202888
2.21278e-05
0.00199858
3.0347e-05
0.00196584
3.27848e-05
0.00193158
3.43008e-05
0.00189492
3.66983e-05
0.00185207
4.28938e-05
0.00179271
5.94106e-05
0.0016924
0.000100355
0.00151089
0.000181554
0.00123474
0.000276192
0.000902298
0.00033249
0.000908163
-0.00205082
0.00513976
-0.00286531
0.00145417
-0.00363047
0.00142855
-0.00426079
0.0012401
-0.00478555
0.00104444
-0.00520545
0.000832963
-0.00550914
0.000593741
-0.00567831
0.00031567
-0.00569061
-9.75896e-06
-0.00553046
-0.000382721
-0.00518812
-0.000790373
-0.00466169
-0.00121191
-0.00396226
-0.00165785
-0.00324282
-0.00214093
-0.00322117
-0.00238549
-0.00135661
-0.00186458
-0.00135663
0.000788071
-0.00168434
0.0010967
-0.00085656
0.00128
-0.000456743
0.00142101
-0.000298892
0.00152672
-0.000209238
0.00159728
-0.00012525
0.00161159
-1.8249e-05
0.00161678
1.69756e-05
0.00162116
2.60123e-05
0.00162519
2.87979e-05
0.00162874
3.08045e-05
0.00163166
3.38209e-05
0.00163311
4.14914e-05
0.00162923
6.33322e-05
0.00158997
0.00013966
0.00141026
0.000361315
0.00109892
0.00058758
0.000724096
0.000707355
0.00164735
-0.00148503
0.00689414
-0.00230488
0.00227405
-0.00301615
0.00213985
-0.00357238
0.00179636
-0.0040422
0.0015143
-0.00442791
0.0012187
-0.0047169
0.00088277
-0.00488968
0.000488481
-0.00492365
2.42466e-05
-0.0047975
-0.000508838
-0.00450575
-0.00108209
-0.00406539
-0.00165224
-0.00353166
-0.00219156
-0.00302143
-0.00265113
-0.00252621
-0.00288068
-0.0015193
-0.00287146
-0.00287589
0.000294673
-0.00196482
0.000581035
-0.00114288
0.000801732
-0.000677396
0.000971501
-0.000468618
0.00110609
-0.000343781
0.00121853
-0.000237649
0.00120048
0.00121766
0.00124387
0.00127287
0.00130387
0.0013379
0.00137959
0.00144312
0.00158298
0.00131122
0.000633129
0.000975863
0.000922978
0.000580062
0.0011032
0.00225014
-0.00108996
0.00832724
-0.00185758
0.0030417
-0.00235585
0.00263816
-0.0027663
0.00220684
-0.00313661
0.00188465
-0.00345811
0.00154024
-0.0037145
0.0011392
-0.00388367
0.000657682
-0.00393589
7.65009e-05
-0.00383862
-0.00060607
-0.00359426
-0.00132643
-0.00324587
-0.00200059
-0.0028603
-0.00257711
-0.00249135
-0.00302006
-0.00208199
-0.00329001
-0.00157751
-0.00337591
-0.0014768
-0.00297657
0.000386447
-0.0018479
0.000185449
-0.00176379
0.00031416
-0.00127155
0.000493572
-0.000856766
0.000649442
-0.000624443
0.000787442
-0.000481737
0.000909469
-0.000359632
0.00115918
-0.000249818
0.00138735
-0.000228283
0.00160081
-0.000213566
0.00178711
-0.000186413
0.00192208
-0.000135074
0.00197255
-5.0581e-05
0.00190681
6.56354e-05
0.00169703
0.000209671
0.00129528
0.000401638
0.00113177
0.000796683
0.000789013
0.00126578
0.000265915
0.00162635
0.00254567
-0.000795232
0.00952601
-0.00148795
0.00373445
-0.00165635
0.00280659
-0.00188439
0.00243492
-0.00212639
0.00212668
-0.00235143
0.00176531
-0.00254052
0.00132833
-0.00267469
0.000791889
-0.00272222
0.000124064
-0.00263108
-0.000697177
-0.00242107
-0.00153641
-0.00215749
-0.00226414
-0.00189848
-0.00283609
-0.00166713
-0.00325139
-0.00143229
-0.00352483
-0.00115694
-0.00365123
-0.000727649
-0.00340583
-3.67121e-05
-0.00253879
7.63752e-05
-0.00187683
0.000137194
-0.00133233
0.000246006
-0.000965534
0.000368386
-0.000746779
0.000498466
-0.000611773
0.000651293
-0.000512414
0.00085151
-0.00044999
0.00104669
-0.00042342
0.00123509
-0.000401916
0.00140937
-0.000360651
0.00155297
-0.000278631
0.00163848
-0.000136039
0.00163414
7.00121e-05
0.00152774
0.000316121
0.00133271
0.000596717
0.00114636
0.000983079
0.000931237
0.00148095
0.000435539
0.00212209
0.000209092
0.00277216
-0.00127928
0.00148822
-0.00172809
0.000448647
-0.0016692
-0.000700247
0.0106798
-0.00127633
0.00431056
-0.000956466
0.00248676
-0.000929744
0.00240823
-0.00104501
0.00224198
-0.00116689
0.00188722
-0.00125692
0.0014184
-0.00131089
0.000845895
-0.0013018
0.000115005
-0.00118014
-0.000818795
-0.00100707
-0.00170944
-0.000846065
-0.00242512
-0.00073197
-0.00295016
-0.000670041
-0.0033133
-0.000633656
-0.0035612
-0.000549403
-0.00373546
-0.000319288
-0.00363591
-7.3839e-05
-0.0027842
-3.73574e-05
-0.00191327
-3.06865e-05
-0.00133895
1.05356e-05
-0.00100671
7.9713e-05
-0.000815912
0.000170752
-0.000702768
0.000288521
-0.000630139
0.000428443
-0.000589867
0.000576897
-0.000571829
0.000730586
-0.000555561
0.00088762
-0.00051764
0.00104204
-0.000433005
0.00117939
-0.00027335
0.00126401
-1.4558e-05
0.0012781
0.000302077
0.00124828
0.000626577
0.00123646
0.000994952
0.0013096
0.00140785
0.00146353
0.00196821
0.00198937
0.00224637
0.00226485
0.00121278
0.00189185
0.000821698
0.000293122
-0.000946792
0.012123
-0.000987188
0.00435099
-2.57189e-05
0.00152532
0.000282019
0.00210053
0.000230139
0.00229389
0.000158084
0.00195931
0.000162637
0.00141388
0.0002239
0.000784666
0.00036622
-2.72774e-05
0.00053707
-0.00098961
0.000634513
-0.00180686
0.000639543
-0.00243012
0.000557951
-0.00286855
0.000408633
-0.00316396
0.000225619
-0.00337818
8.34742e-05
-0.00359331
5.98318e-05
-0.00361223
2.61049e-05
-0.00275044
-9.57585e-05
-0.00179136
-0.000191459
-0.00124321
-0.000234346
-0.000963781
-0.000239062
-0.000811152
-0.000217459
-0.000724326
-0.000172257
-0.000675296
-0.000108598
-0.000653482
-3.11214e-05
-0.000649261
5.97948e-05
-0.000646433
0.000167238
-0.000625039
0.00029693
-0.000562652
0.000454032
-0.000430408
0.000633957
-0.000194438
0.000803132
0.000132946
0.000953614
0.00047614
0.00114413
0.000804478
0.00145408
0.00109795
0.00196513
0.00145721
0.00276842
0.00144313
0.00339211
0.000589133
0.00352691
0.000686939
0.00389697
0.00241959
0.010255
0.00291621
0.0038544
0.00288859
0.00155298
0.00271975
0.0022694
0.00242692
0.00258675
0.00224765
0.00213862
0.00222341
0.00143816
0.00234459
0.000663514
0.0025407
-0.00022334
0.00260192
-0.0010508
0.00249569
-0.00170059
0.00224059
-0.002175
0.00187922
-0.00250715
0.00145651
-0.00274125
0.00102312
-0.00294478
0.000658082
-0.00322826
0.000423298
-0.00337741
0.000137736
-0.00246483
-0.000168799
-0.00148478
-0.000381142
-0.00103082
-0.000511281
-0.000833597
-0.000595584
-0.000726805
-0.000654218
-0.000665647
-0.00069584
-0.00063363
-0.000726136
-0.000623141
-0.000748833
-0.000626519
-0.000763296
-0.000631925
-0.00076378
-0.00062451
-0.000738011
-0.000588377
-0.000661142
-0.000507232
-0.000492819
-0.000362717
-0.000232592
-0.000127236
6.25852e-05
0.000181009
0.00038937
0.000477739
0.000775245
0.00071212
0.0013022
0.000930306
0.0018547
0.000890667
0.00190473
0.000539146
0.000806514
0.0017852
0.00502884
0.0108637
0.014715
0.0126734
0.00359453
0.0104863
0.00445655
0.00875035
0.00432274
0.00756861
0.00332039
0.006789
0.0022178
0.00626121
0.00119134
0.00574132
0.00029659
0.00513509
-0.000444544
0.00446389
-0.00102937
0.0037519
-0.00146299
0.00301476
-0.00177
0.00227289
-0.00199936
0.00157205
-0.00224394
0.0010325
-0.00268869
0.000713294
-0.00305816
0.000168672
-0.00192016
-0.000327764
-0.000988293
-0.000629876
-0.00072866
-0.000822594
-0.000640834
-0.000972514
-0.00057684
-0.00110557
-0.000532542
-0.00123362
-0.000505536
-0.00136528
-0.00049144
-0.00150698
-0.000484777
-0.00166264
-0.000476221
-0.00183517
-0.000451927
-0.00202861
-0.0003949
-0.00224853
-0.000287268
-0.00250172
-0.000109483
-0.00278102
0.000152111
-0.00310376
0.000503795
-0.00357991
0.000953929
-0.00435351
0.00148576
-0.00547764
0.00205448
-0.00706057
0.00247364
-0.00900766
0.00248627
-0.00853062
0.00130821
-0.00314203
0.00455288
0.00491453
0.0045988
0.00441063
0.00572704
0.00319451
0.00615469
0.00289276
0.00618602
0.00218649
0.00607329
0.00130408
0.00583595
0.000533944
0.00542848
-3.70587e-05
0.00484953
-0.000450405
0.00414828
-0.000761718
0.00336749
-0.000989203
0.00253867
-0.00117052
0.00171223
-0.00141749
0.00108468
-0.00206113
0.000777342
-0.00275076
-3.1543e-05
-0.00111123
-0.000667282
-0.000352505
-0.000963974
-0.00043192
-0.00115772
-0.000447045
-0.00133246
-0.000402056
-0.00150046
-0.000364491
-0.00167013
-0.000335824
-0.00185175
-0.000309775
-0.00205257
-0.000283908
-0.00227395
-0.000254799
-0.00250981
-0.000216017
-0.00274616
-0.000158504
-0.0029595
-7.38879e-05
-0.00312103
5.20899e-05
-0.0032332
0.000264323
-0.00331303
0.000583668
-0.00338007
0.00102102
-0.00344542
0.00155115
-0.00344224
0.00205135
-0.00322706
0.00225851
-0.00195902
0.00121827
0.000131183
-0.000781947
-0.00292165
-0.000750045
0.00572254
0.00130575
0.00235484
0.00249536
0.00200491
0.00340592
0.00198221
0.00410731
0.00148512
0.00451276
0.000898647
0.0046097
0.000437015
0.00445488
0.000117777
0.00413114
-0.000126649
0.00367122
-0.000301781
0.00310601
-0.000423983
0.00245555
-0.000520037
0.00172848
-0.000690421
0.000945963
-0.00127859
9.2556e-05
-0.00189727
-0.000707564
-0.000311059
-0.00118499
0.000124972
-0.00139819
-0.000218675
-0.00157977
-0.000265418
-0.00174803
-0.000233749
-0.00190153
-0.000210954
-0.0020426
-0.000194707
-0.00217559
-0.000176743
-0.00230419
-0.000155262
-0.00242999
-0.000128953
-0.00255106
-9.49012e-05
-0.00266117
-4.83465e-05
-0.00274996
1.49493e-05
-0.00279156
9.37303e-05
-0.00274006
0.000212871
-0.00256044
0.000404087
-0.00222513
0.000685751
-0.00174314
0.0010692
-0.00108879
0.00139704
7.94372e-05
0.00109033
0.00187281
-0.000575054
0.00345819
-0.00236728
0.000633502
-0.00877986
-0.0114471
-0.00567513
-0.00329109
-0.00126253
0.000740299
0.00224485
0.00316303
0.00362024
0.00375921
0.00365481
0.00337633
0.00297675
0.00248231
0.00181881
0.000568513
-0.00130258
-0.0015906
-0.00144365
-0.00164018
-0.00188344
-0.00209507
-0.00228394
-0.00245661
-0.0026114
-0.00274486
-0.00285222
-0.00292586
-0.00295336
-0.0029181
-0.00280471
-0.00257291
-0.00215069
-0.00144765
-0.000362048
0.00105034
0.00215557
0.00159624
-0.000755364
)
;

boundaryField
{
    floor
    {
        type            calculated;
        value           nonuniform List<scalar> 
29
(
0
0
0
0
0
0
0
0
0
0
0
0
0
0
0
0
0
0
0
0
-5.81906e-06
-1.50463e-05
-2.2683e-05
-2.95618e-05
-2.80141e-06
-3.44629e-06
-9.24482e-06
-1.41509e-05
-1.53136e-05
)
;
    }
    ceiling
    {
        type            calculated;
        value           nonuniform List<scalar> 
43
(
-5.31936e-05
-5.12388e-05
-4.94407e-05
-2.91864e-05
-2.36427e-05
-2.06082e-05
-1.94156e-05
-1.95172e-05
-2.01765e-05
-2.11692e-05
-2.22375e-05
-2.32843e-05
-2.43837e-05
-2.55789e-05
-2.69053e-05
-2.82706e-05
-2.60601e-05
-2.29928e-05
-2.19273e-05
-2.2103e-05
-2.21073e-05
-2.20766e-05
-2.20408e-05
-2.19921e-05
-2.19075e-05
-2.17634e-05
-2.15397e-05
-2.12228e-05
-2.08028e-05
-2.02676e-05
-1.96136e-05
-1.8885e-05
-1.80885e-05
-1.72413e-05
-1.63559e-05
-1.53029e-05
-1.48501e-05
-1.56866e-05
-1.56338e-05
-1.28286e-05
5.77587e-06
3.1198e-06
-5.79724e-05
)
;
    }
    sWall
    {
        type            calculated;
        value           uniform -0.000258044;
    }
    nWall
    {
        type            calculated;
        value           nonuniform List<scalar> 6(-5.90484e-05 -7.04257e-05 -7.68894e-05 -8.91524e-05 -9.6919e-05 -0.00010899);
    }
    sideWalls
    {
        type            empty;
        value           nonuniform 0();
    }
    glass1
    {
        type            calculated;
        value           nonuniform List<scalar> 9(-6.6931e-05 -0.000178513 -0.000269319 -0.000343116 -0.000403516 -0.000453546 -0.000496354 -0.000551573 -0.000614389);
    }
    glass2
    {
        type            calculated;
        value           nonuniform List<scalar> 2(-0.000325312 -0.00035971);
    }
    sun
    {
        type            calculated;
        value           uniform 0;
    }
    heatsource1
    {
        type            calculated;
        value           nonuniform List<scalar> 3(2.05755e-07 2.05589e-07 2.05601e-07);
    }
    heatsource2
    {
        type            calculated;
        value           nonuniform List<scalar> 4(5.12473e-08 5.14736e-08 0 0);
    }
    Table_master
    {
        type            calculated;
        value           nonuniform List<scalar> 9(-1.54402e-07 -1.54453e-07 -1.54463e-07 -1.54469e-07 -1.54474e-07 -1.54476e-07 -1.54474e-07 -1.54464e-07 -1.54426e-07);
    }
    Table_slave
    {
        type            calculated;
        value           nonuniform List<scalar> 9(1.54365e-07 1.54334e-07 1.54269e-07 1.54212e-07 1.54174e-07 1.54166e-07 1.54178e-07 1.54214e-07 1.54301e-07);
    }
    inlet
    {
        type            calculated;
        value           uniform -0.00587288;
    }
    outlet
    {
        type            calculated;
        value           nonuniform List<scalar> 2(0.00909111 0.00271849);
    }
}


// ************************************************************************* //
