/*--------------------------------*- C++ -*----------------------------------*\
  =========                 |
  \\      /  F ield         | OpenFOAM: The Open Source CFD Toolbox
   \\    /   O peration     | Website:  https://openfoam.org
    \\  /    A nd           | Version:  6
     \\/     M anipulation  |
\*---------------------------------------------------------------------------*/
FoamFile
{
    version     2.0;
    format      ascii;
    class       volScalarField;
    location    "1800";
    object      nut;
}
// * * * * * * * * * * * * * * * * * * * * * * * * * * * * * * * * * * * * * //

dimensions      [0 2 -1 0 0 0 0];

internalField   nonuniform List<scalar> 
459
(
0.00113851
0.00124711
0.00127147
0.00133435
0.00139331
0.00144925
0.00150508
0.00155614
0.00159027
0.00160165
0.00158528
0.00153811
0.00145917
0.00135301
0.00123282
0.000514812
0.000621987
0.000699809
0.000698343
0.000675279
0.000644122
0.000604166
0.000564394
0.000528306
0.000496293
0.000467966
0.000442815
0.000420462
0.000400405
0.000381935
0.000364159
0.000345822
0.00033435
0.000306369
0.00154927
0.00388619
0.0037616
0.00439276
0.00501479
0.0056267
0.00614377
0.00655039
0.00690802
0.00718822
0.00735499
0.00737124
0.00718046
0.00663688
0.00514526
0.00126694
0.000737233
0.000546847
0.00115023
0.00160568
0.00193989
0.0021202
0.00211332
0.0016842
0.00144953
0.00128296
0.00115559
0.00105455
0.000972378
0.000901428
0.000835094
0.000770428
0.000712805
0.00066149
0.000785436
0.00040622
0.00188808
0.00531127
0.00469813
0.00588192
0.00648359
0.00693149
0.00727754
0.00757016
0.00787831
0.00818782
0.00845874
0.00864502
0.00869348
0.00851322
0.00784572
0.00594047
0.00129968
0.00105808
0.00154776
0.00200667
0.0024269
0.00271516
0.0026417
0.000857886
0.000756929
0.000675718
0.000610202
0.00055687
0.000513002
0.000476645
0.000446556
0.000422253
0.000456533
0.000528501
0.000889828
0.000474218
0.00221065
0.00675061
0.0047494
0.00623257
0.00675391
0.00694893
0.00709115
0.0072702
0.00753608
0.0078712
0.00822237
0.00853276
0.00874059
0.00876946
0.00856319
0.00781983
0.00532663
0.00153314
0.00191031
0.00248447
0.00305383
0.00350999
0.0037851
0.00353606
0.000964689
0.000878297
0.000816463
0.00076891
0.000727916
0.000690525
0.000654487
0.000616715
0.000573054
0.000537315
0.0005536
0.00104158
0.000524663
0.00253786
0.00857759
0.00525289
0.00605498
0.00670911
0.00677714
0.00675434
0.00688628
0.00712956
0.00748627
0.00788588
0.00825185
0.00849357
0.00855751
0.00843868
0.00810453
0.00736043
0.00611647
0.0056901
0.00556025
0.00552167
0.00548918
0.00541422
0.0051777
0.00433641
0.00393315
0.00369593
0.00351022
0.00331567
0.0030367
0.00267289
0.00224295
0.00177469
0.00131211
0.000969495
0.00102003
0.000686419
0.00063974
0.00076437
0.000855763
0.00288335
0.0105598
0.00718299
0.00617191
0.00664918
0.00676163
0.00671211
0.00679563
0.00698673
0.0073166
0.00774351
0.00815274
0.00841545
0.0084533
0.0082782
0.00797904
0.00765326
0.00735234
0.00718665
0.00704226
0.00685606
0.00663272
0.00638004
0.00607805
0.00566969
0.00531822
0.00501687
0.00473647
0.00445764
0.00415375
0.00377057
0.00329375
0.00272703
0.00211012
0.0015745
0.00117108
0.000917463
0.000809552
0.0011721
0.000897235
0.00319008
0.0119059
0.00988243
0.00793119
0.0076012
0.0073224
0.00703084
0.00691458
0.00703819
0.00739159
0.00787837
0.00833549
0.00859923
0.00858004
0.0083122
0.00795984
0.00773423
0.0077049
0.00771447
0.00758879
0.00731055
0.00693756
0.00651451
0.00606933
0.00563035
0.0052489
0.00491823
0.00462176
0.00435451
0.00412002
0.00391481
0.00358643
0.00312842
0.00258268
0.00207373
0.00161706
0.00131857
0.00125944
0.00132119
0.00103234
0.00324289
0.0103857
0.00938403
0.00867361
0.00799224
0.00731475
0.00690016
0.00685423
0.00716213
0.0077196
0.00834881
0.00883834
0.00902267
0.00885103
0.00842438
0.00800041
0.0078314
0.00786899
0.00777043
0.00742797
0.00691961
0.00633228
0.00574009
0.0052063
0.00476785
0.00442298
0.00414577
0.00392048
0.00374574
0.00362761
0.00357164
0.00353389
0.00326133
0.00289889
0.00259307
0.00246537
0.00263903
0.00321169
0.00404441
0.00159537
0.0031512
0.003715
0.00409073
0.00418363
0.00440078
0.00488194
0.00564114
0.00662367
0.00769891
0.0086877
0.00940038
0.00968018
0.00948955
0.00894493
0.00831979
0.00793944
0.00770522
0.00744219
0.00699826
0.0063758
0.00567084
0.00498973
0.0044119
0.00396621
0.00363562
0.00338431
0.00318228
0.0030124
0.00286457
0.00273073
0.00260402
0.00248846
0.00239717
0.00233834
0.00233145
0.00236348
0.00236246
0.00226412
0.00210444
0.00146876
0.00144113
0.00367813
0.00668821
0.00866124
0.00997027
0.0107764
0.0111184
0.0110635
0.0106879
0.0100739
0.0092043
0.00831697
0.00763397
0.00715688
0.00667985
0.00609527
0.00542244
0.00473229
0.00409741
0.0035841
0.00320715
0.00293913
0.00274502
0.00259852
0.00248432
0.00239509
0.00232833
0.00228493
0.00226941
0.00227901
0.00230245
0.00233683
0.00237111
0.00237399
0.00229816
0.00212707
0.00187279
0.00118377
0.00218924
0.006801
0.00938197
0.0100681
0.0102824
0.0101391
0.00966669
0.00898473
0.00820819
0.00744443
0.00672288
0.00611415
0.00560713
0.00510234
0.00455796
0.00401396
0.00351726
0.00309805
0.00276667
0.00251277
0.00233118
0.00220516
0.00212164
0.00207284
0.00205393
0.00206045
0.00208661
0.0021276
0.00219072
0.00227113
0.00236504
0.00246498
0.00255449
0.00261858
0.00260867
0.00261275
0.00236391
0.00119835
0.00196138
0.00208046
0.00216632
0.00233685
0.00224519
0.00215959
0.00208889
0.00198618
0.00184737
0.00168066
0.00149489
0.00130627
0.00113747
0.00100207
0.000900363
0.000825678
0.000770918
0.000731129
0.000703554
0.000686657
0.000679218
0.000679793
0.000686031
0.000697117
0.000712586
0.000732252
0.000756157
0.00078461
0.000818314
0.000858187
0.000903667
0.000955242
0.00101334
0.00107847
0.00115067
0.00124646
0.00127407
0.00124283
0.00115945
0.00106984
)
;

boundaryField
{
    floor
    {
        type            nutkWallFunction;
        Cmu             0.09;
        kappa           0.41;
        E               9.8;
        value           nonuniform List<scalar> 
29
(
0.000147769
6.16071e-05
7.50917e-05
8.47041e-05
8.45244e-05
8.16889e-05
7.78397e-05
7.28706e-05
6.78843e-05
6.33227e-05
5.92439e-05
5.56072e-05
5.23553e-05
4.94457e-05
4.68181e-05
4.43836e-05
4.20261e-05
3.95788e-05
3.80392e-05
3.42539e-05
3.42538e-05
4.75809e-05
5.64116e-05
6.28593e-05
0.000147769
6.16071e-05
6.56707e-05
0.000127528
0.000181838
)
;
    }
    ceiling
    {
        type            nutkWallFunction;
        Cmu             0.09;
        kappa           0.41;
        E               9.8;
        value           nonuniform List<scalar> 
43
(
0.000228997
0.000241935
0.000251216
0.000269678
0.000259894
0.000250688
0.000243049
0.000231891
0.000216705
0.000198298
0.000177548
0.000156185
0.000136771
0.000120963
0.000108927
9.99893e-05
9.33758e-05
8.85356e-05
8.51629e-05
8.30886e-05
8.21734e-05
8.22442e-05
8.30116e-05
8.43734e-05
8.62694e-05
8.86726e-05
9.15837e-05
9.50344e-05
9.9103e-05
0.000103891
0.000109321
0.00011544
0.000122288
0.000129912
0.000138302
0.000149342
0.000152507
0.000148926
0.000139318
0.000128905
0.000355824
0.000413908
0.00025348
)
;
    }
    sWall
    {
        type            nutkWallFunction;
        Cmu             0.09;
        kappa           0.41;
        E               9.8;
        value           uniform 0.000229062;
    }
    nWall
    {
        type            nutkWallFunction;
        Cmu             0.09;
        kappa           0.41;
        E               9.8;
        value           nonuniform List<scalar> 6(0.000103603 0.000108558 0.000124522 0.00014214 0.000143822 0.000128913);
    }
    sideWalls
    {
        type            empty;
    }
    glass1
    {
        type            nutkWallFunction;
        Cmu             0.09;
        kappa           0.41;
        E               9.8;
        value           nonuniform List<scalar> 9(0.00013702 0.000183902 0.000221517 0.000256648 0.000291727 0.000328253 0.000360302 0.000365798 0.000356288);
    }
    glass2
    {
        type            nutkWallFunction;
        Cmu             0.09;
        kappa           0.41;
        E               9.8;
        value           nonuniform List<scalar> 2(0.000188902 0.000174693);
    }
    sun
    {
        type            nutkWallFunction;
        Cmu             0.09;
        kappa           0.41;
        E               9.8;
        value           nonuniform List<scalar> 
14
(
0.000136893
0.000149412
0.000152202
0.000159382
0.000166079
0.000172403
0.000178689
0.000184415
0.000188231
0.000189501
0.000187673
0.000182394
0.000173521
0.000161504
)
;
    }
    heatsource1
    {
        type            nutkWallFunction;
        Cmu             0.09;
        kappa           0.41;
        E               9.8;
        value           nonuniform List<scalar> 3(7.72982e-05 9.25815e-05 0.0001036);
    }
    heatsource2
    {
        type            nutkWallFunction;
        Cmu             0.09;
        kappa           0.41;
        E               9.8;
        value           nonuniform List<scalar> 4(0.000151677 8.92813e-05 8.92813e-05 0.000155421);
    }
    Table_master
    {
        type            nutkWallFunction;
        Cmu             0.09;
        kappa           0.41;
        E               9.8;
        value           nonuniform List<scalar> 9(0.000103853 9.1678e-05 8.17448e-05 7.36272e-05 6.69413e-05 6.13831e-05 5.67321e-05 5.28496e-05 4.96898e-05);
    }
    Table_slave
    {
        type            nutkWallFunction;
        Cmu             0.09;
        kappa           0.41;
        E               9.8;
        value           nonuniform List<scalar> 9(0.000116553 0.000106294 9.88793e-05 9.31324e-05 8.81444e-05 8.35656e-05 7.91245e-05 7.44379e-05 6.89771e-05);
    }
    inlet
    {
        type            calculated;
        value           uniform 0.000100623;
    }
    outlet
    {
        type            calculated;
        value           nonuniform List<scalar> 2(0.00196138 0.00208046);
    }
}


// ************************************************************************* //
