// -*- C++ -*-
// File generated by PyFoam - sorry for the ugliness

FoamFile
{
 version 2.0;
 format ascii;
 class volScalarField;
 location "1800";
 object T;
}

dimensions [ 0 0 0 1 0 0 0 ];

internalField nonuniform List<scalar> 459
(
  302.681
  302.4
  302.386
  302.381
  302.377
  302.372
  302.367
  302.361
  302.352
  302.342
  302.331
  302.323
  302.319
  302.321
  302.33
  302.464
  302.437
  302.427
  302.431
  302.437
  302.442
  302.447
  302.453
  302.458
  302.463
  302.468
  302.473
  302.478
  302.483
  302.488
  302.493
  302.499
  302.506
  302.531
  302.866
  302.442
  302.413
  302.414
  302.415
  302.414
  302.411
  302.402
  302.385
  302.362
  302.338
  302.318
  302.307
  302.303
  302.304
  302.304
  302.304
  302.467
  302.418
  302.41
  302.414
  302.421
  302.427
  302.43
  302.432
  302.435
  302.436
  302.438
  302.44
  302.442
  302.444
  302.447
  302.452
  302.46
  302.472
  302.512
  303.06
  302.495
  302.448
  302.455
  302.467
  302.476
  302.478
  302.467
  302.439
  302.398
  302.356
  302.322
  302.302
  302.295
  302.298
  302.303
  302.306
  302.393
  302.39
  302.399
  302.413
  302.427
  302.438
  302.438
  302.438
  302.438
  302.438
  302.439
  302.439
  302.44
  302.44
  302.441
  302.445
  302.45
  302.461
  302.505
  303.257
  302.562
  302.486
  302.499
  302.526
  302.55
  302.564
  302.552
  302.506
  302.439
  302.374
  302.324
  302.295
  302.288
  302.294
  302.305
  302.314
  302.331
  302.351
  302.379
  302.407
  302.433
  302.456
  302.473
  302.487
  302.499
  302.509
  302.519
  302.526
  302.532
  302.536
  302.54
  302.541
  302.509
  302.482
  302.471
  302.506
  303.448
  302.649
  302.535
  302.543
  302.581
  302.625
  302.656
  302.636
  302.566
  302.468
  302.381
  302.318
  302.286
  302.279
  302.291
  302.311
  302.333
  302.357
  302.386
  302.419
  302.451
  302.481
  302.507
  302.527
  302.545
  302.559
  302.571
  302.58
  302.585
  302.587
  302.585
  302.58
  302.571
  302.547
  302.513
  302.487
  302.503
  302.601
  302.646
  302.652
  303.622
  302.763
  302.62
  302.608
  302.648
  302.708
  302.732
  302.684
  302.586
  302.471
  302.368
  302.298
  302.266
  302.268
  302.292
  302.326
  302.362
  302.399
  302.437
  302.475
  302.511
  302.541
  302.566
  302.586
  302.602
  302.614
  302.623
  302.629
  302.632
  302.629
  302.622
  302.612
  302.597
  302.574
  302.541
  302.509
  302.506
  302.547
  302.566
  302.607
  303.784
  302.943
  302.806
  302.781
  302.797
  302.831
  302.792
  302.687
  302.549
  302.413
  302.307
  302.247
  302.233
  302.256
  302.302
  302.358
  302.412
  302.461
  302.506
  302.546
  302.579
  302.606
  302.627
  302.643
  302.655
  302.663
  302.669
  302.671
  302.67
  302.664
  302.653
  302.638
  302.621
  302.598
  302.568
  302.537
  302.523
  302.535
  302.548
  302.582
  304.017
  303.392
  303.244
  303.164
  303.094
  302.963
  302.779
  302.576
  302.392
  302.255
  302.179
  302.165
  302.197
  302.26
  302.341
  302.421
  302.49
  302.545
  302.588
  302.621
  302.646
  302.666
  302.681
  302.691
  302.698
  302.703
  302.704
  302.703
  302.699
  302.692
  302.681
  302.665
  302.648
  302.628
  302.606
  302.583
  302.577
  302.597
  302.624
  302.776
  304.353
  304.057
  303.76
  303.447
  303.071
  302.664
  302.325
  302.09
  301.967
  301.943
  301.993
  302.092
  302.207
  302.323
  302.439
  302.531
  302.591
  302.632
  302.662
  302.685
  302.702
  302.715
  302.724
  302.729
  302.732
  302.732
  302.731
  302.729
  302.725
  302.721
  302.719
  302.719
  302.721
  302.73
  302.749
  302.779
  302.821
  302.862
  302.887
  302.951
  293.356
  295.251
  297.231
  298.706
  299.775
  300.578
  301.188
  301.646
  301.986
  302.248
  302.403
  302.51
  302.588
  302.642
  302.678
  302.704
  302.722
  302.736
  302.745
  302.752
  302.756
  302.758
  302.759
  302.76
  302.76
  302.76
  302.76
  302.761
  302.762
  302.765
  302.771
  302.782
  302.799
  302.824
  302.854
  302.883
  302.904
  302.926
  294.549
  297.001
  299.193
  300.306
  301.011
  301.506
  301.862
  302.131
  302.334
  302.482
  302.58
  302.646
  302.69
  302.721
  302.741
  302.755
  302.765
  302.772
  302.776
  302.779
  302.78
  302.781
  302.782
  302.783
  302.784
  302.784
  302.785
  302.786
  302.788
  302.791
  302.795
  302.803
  302.815
  302.832
  302.853
  302.875
  302.874
  302.907
  298.286
  298.21
  298.204
  300.523
  301.448
  301.846
  302.09
  302.275
  302.42
  302.533
  302.619
  302.683
  302.727
  302.757
  302.777
  302.791
  302.8
  302.806
  302.809
  302.811
  302.812
  302.813
  302.812
  302.812
  302.811
  302.811
  302.81
  302.809
  302.809
  302.808
  302.808
  302.809
  302.811
  302.814
  302.819
  302.832
  302.844
  302.852
  302.855
  302.895
)
;

boundaryField
{
  floor
  {
    type wallHeatTransfer;
    Tinf uniform 305.2;
    alphaWall uniform 0.24;
    value nonuniform List<scalar> 29
(
  302.603
  302.954
  302.872
  302.829
  302.833
  302.847
  302.866
  302.89
  302.915
  302.941
  302.966
  302.99
  303.013
  303.035
  303.056
  303.078
  303.099
  303.123
  303.142
  303.195
  303.195
  303.074
  303.015
  302.983
  302.603
  302.955
  302.937
  302.694
  302.561
)
;
  }
  ceiling
  {
    type wallHeatTransfer;
    Tinf uniform 303.2;
    alphaWall uniform 0.24;
    value nonuniform List<scalar> 43
(
  298.607
  298.521
  298.505
  300.676
  301.552
  301.929
  302.16
  302.336
  302.474
  302.583
  302.667
  302.73
  302.775
  302.807
  302.828
  302.844
  302.854
  302.861
  302.866
  302.869
  302.87
  302.87
  302.869
  302.868
  302.867
  302.865
  302.864
  302.862
  302.86
  302.857
  302.856
  302.854
  302.854
  302.855
  302.858
  302.867
  302.877
  302.885
  302.89
  302.927
  304.301
  304.023
  295.061
)
;
  }
  sWall
  {
    type wallHeatTransfer;
    Tinf uniform 315.2;
    alphaWall uniform 0.36;
    value uniform 299.896;
  }
  nWall
  {
    type wallHeatTransfer;
    Tinf uniform 307.2;
    alphaWall uniform 0.36;
    value nonuniform List<scalar> 6
(
  303.458
  303.395
  303.299
  303.528
  303.506
  303.547
)
;
  }
  sideWalls
  {
    type empty;
  }
  glass1
  {
    type wallHeatTransfer;
    Tinf uniform 315.2;
    alphaWall uniform 4.3;
    value nonuniform List<scalar> 9
(
  311.116
  310.43
  310.004
  309.684
  309.419
  309.181
  309.013
  309.1
  309.353
)
;
  }
  glass2
  {
    type wallHeatTransfer;
    Tinf uniform 307.2;
    alphaWall uniform 4.3;
    value nonuniform List<scalar> 2
(
  305.448
  305.589
)
;
  }
  sun
  {
    type wallHeatTransfer;
    Tinf uniform 305.2;
    alphaWall uniform 0.24;
    value nonuniform List<scalar> 14
(
  302.936
  302.665
  302.647
  302.634
  302.621
  302.61
  302.598
  302.586
  302.574
  302.563
  302.556
  302.554
  302.56
  302.576
)
;
  }
  heatsource1
  {
    type fixedGradient;
    gradient uniform 0;
  }
  heatsource2
  {
    type fixedGradient;
    gradient uniform 0;
  }
  Table_master
  {
    type zeroGradient;
  }
  Table_slave
  {
    type zeroGradient;
  }
  inlet
  {
    type fixedValue;
    value uniform 290.15;
  }
  outlet
  {
    type zeroGradient;
  }
} 	// ************************************************************************* //

