/*--------------------------------*- C++ -*----------------------------------*\
  =========                 |
  \\      /  F ield         | OpenFOAM: The Open Source CFD Toolbox
   \\    /   O peration     | Website:  https://openfoam.org
    \\  /    A nd           | Version:  6
     \\/     M anipulation  |
\*---------------------------------------------------------------------------*/
FoamFile
{
    version     2.0;
    format      ascii;
    class       volScalarField;
    location    "600";
    object      alphat;
}
// * * * * * * * * * * * * * * * * * * * * * * * * * * * * * * * * * * * * * //

dimensions      [1 -1 -1 0 0 0 0];

internalField   nonuniform List<scalar> 
459
(
0.00137076
0.00150696
0.00154252
0.00162071
0.00169478
0.00176661
0.00184097
0.0019001
0.00193431
0.00193639
0.00190151
0.00182547
0.00170136
0.00150939
0.00124373
0.000626859
0.000744864
0.000850365
0.000876457
0.000858118
0.000824964
0.000772842
0.000718988
0.000670168
0.000627199
0.000589495
0.000556311
0.000526829
0.000500655
0.000476779
0.000454019
0.000430804
0.000413834
0.000377508
0.00184346
0.00468596
0.00456719
0.00533417
0.0061007
0.00683037
0.0073804
0.00786237
0.00827459
0.00857854
0.00874274
0.00873778
0.00851883
0.00797246
0.00649545
0.00145402
0.00100724
0.000637532
0.00145248
0.00211402
0.00263092
0.00293958
0.0029313
0.00221422
0.00186665
0.00162908
0.00145183
0.00131401
0.00120371
0.00111439
0.00103082
0.000947442
0.000870975
0.000805195
0.000941195
0.000481947
0.00222991
0.00638257
0.00570199
0.00698035
0.00763068
0.00812012
0.0084913
0.00886492
0.00926174
0.0096485
0.00998257
0.0102165
0.0102739
0.0100446
0.00923014
0.00687026
0.00153171
0.00113027
0.00179686
0.00249746
0.00319642
0.00370302
0.00361146
0.00108932
0.000953579
0.000844301
0.000756433
0.00068524
0.000626975
0.000578861
0.000539383
0.000508036
0.000552332
0.000645075
0.00107874
0.000556548
0.00259521
0.00803336
0.00578095
0.00732315
0.00778125
0.00797565
0.00815394
0.00843808
0.00882372
0.00926876
0.00971954
0.0101062
0.0103196
0.0103304
0.0100607
0.00905771
0.00545714
0.00177579
0.00218777
0.00292573
0.00378559
0.00456203
0.00506817
0.00474669
0.00123088
0.0011131
0.0010266
0.000958449
0.000900224
0.000848488
0.000798567
0.000746781
0.000688118
0.000642345
0.000669874
0.00127023
0.000613605
0.00296513
0.0101295
0.00636214
0.00719353
0.00769222
0.00771286
0.00778644
0.00801876
0.00839708
0.00887684
0.00938136
0.00979372
0.0100214
0.0100448
0.00989706
0.00952106
0.0085717
0.00738782
0.00704999
0.00708357
0.00723086
0.00733948
0.00731396
0.00697664
0.00573328
0.00510368
0.00471819
0.00441825
0.00410325
0.00370241
0.00322126
0.00267431
0.00209121
0.00153365
0.00114418
0.00124093
0.000805762
0.000744005
0.000889493
0.000997482
0.00335687
0.0124264
0.00861955
0.00750205
0.00788999
0.00782219
0.00783302
0.00795203
0.00825612
0.00874293
0.00929221
0.00973343
0.00993421
0.00987498
0.00966493
0.00946164
0.00933652
0.00929696
0.00936301
0.0093872
0.00928914
0.00906758
0.00873651
0.00828122
0.00763748
0.00707091
0.00658853
0.00614613
0.00570554
0.00521046
0.00464054
0.00398435
0.00325051
0.00249193
0.00186966
0.00142261
0.00110506
0.000968383
0.00138739
0.00104774
0.00370242
0.013971
0.0117714
0.00960323
0.00905084
0.00850084
0.00812204
0.00806804
0.00836232
0.00891723
0.00954049
0.0100057
0.0101562
0.00999258
0.00970739
0.00959838
0.00983571
0.0102325
0.0104722
0.0104263
0.0101307
0.00967133
0.0091132
0.00848955
0.00782461
0.00720502
0.00664647
0.00613497
0.00566482
0.00524106
0.00485536
0.00436631
0.00376878
0.00309759
0.00250606
0.00199023
0.00164028
0.0015448
0.0015572
0.00120293
0.0037585
0.0120461
0.010968
0.00992177
0.00894813
0.00819526
0.00788507
0.00806728
0.0086568
0.00945566
0.0101908
0.0106136
0.0106085
0.0102675
0.00993057
0.00999027
0.0104377
0.0107738
0.0107416
0.0103945
0.00981969
0.00910169
0.00830958
0.00750638
0.00675768
0.00610962
0.00556062
0.00510034
0.00473043
0.0044596
0.00429106
0.00417619
0.0038714
0.00345475
0.0031279
0.00299531
0.00314465
0.00363475
0.00462557
0.0018067
0.00364962
0.00429993
0.00469407
0.00482983
0.00517935
0.00591371
0.00700366
0.00832772
0.00967436
0.0107784
0.0113896
0.0113972
0.0109172
0.0103314
0.0101745
0.0102747
0.0103661
0.0102253
0.00980476
0.00914988
0.00832469
0.00740726
0.00649481
0.00567576
0.00500052
0.00446687
0.0040454
0.00370989
0.00344167
0.00322497
0.00304529
0.00290306
0.00280264
0.0027405
0.0027306
0.00275823
0.00274982
0.00264245
0.00245475
0.00167342
0.00164649
0.00451556
0.00835816
0.0107434
0.0122185
0.0130291
0.0132382
0.0129461
0.0123179
0.0113229
0.0103386
0.00969416
0.00946478
0.00929946
0.00897528
0.00844454
0.00772883
0.00688345
0.005994
0.00515581
0.00444038
0.00388082
0.00347104
0.00317983
0.00297359
0.00282911
0.00273273
0.0026776
0.00266292
0.0026788
0.00271663
0.00277348
0.00284157
0.00289836
0.00291554
0.00289514
0.0025605
0.00137564
0.00264141
0.00874826
0.0114526
0.0120655
0.012082
0.0116785
0.0109363
0.0100421
0.00916971
0.00835823
0.00773647
0.00732301
0.00697906
0.00656326
0.00605107
0.00545985
0.00482589
0.00420797
0.00366727
0.00323934
0.0029261
0.00270887
0.0025607
0.00246836
0.00242186
0.00241172
0.00242917
0.00247731
0.00255069
0.00264612
0.00276026
0.00288617
0.00300839
0.00310909
0.00318653
0.0031852
0.0022038
0.0014196
0.00232685
0.00246965
0.00257262
0.00274712
0.00259899
0.00248251
0.00237886
0.00223692
0.00205603
0.00184804
0.00162918
0.00142869
0.00126702
0.00114505
0.00105333
0.000981644
0.000922941
0.00087391
0.000834303
0.000805113
0.000786775
0.000778618
0.00077935
0.000787716
0.000802885
0.000823783
0.000850103
0.000882175
0.000920841
0.000965938
0.00101798
0.0010774
0.00114474
0.00122053
0.0013044
0.0014007
0.00142565
0.00129649
0.00120722
0.00137168
)
;

boundaryField
{
    floor
    {
        type            compressible::alphatWallFunction;
        Prt             0.85;
        value           nonuniform List<scalar> 
29
(
0.000176118
8.83471e-05
0.000105727
0.000120986
0.000124725
0.0001221
0.000117336
0.0001098
0.000101949
9.47701e-05
8.83992e-05
8.2765e-05
7.77694e-05
7.33002e-05
6.93064e-05
6.56403e-05
6.2124e-05
5.85144e-05
5.58602e-05
5.01312e-05
5.01305e-05
6.64365e-05
7.78064e-05
8.63746e-05
0.000176116
8.8346e-05
8.99334e-05
0.00016046
0.000247665
)
;
    }
    ceiling
    {
        type            compressible::alphatWallFunction;
        Prt             0.85;
        value           nonuniform List<scalar> 
43
(
0.000319167
0.000337407
0.000350492
0.000372699
0.000354048
0.00033928
0.000326069
0.00030787
0.000284489
0.000257323
0.000228371
0.00020147
0.000179467
0.000162658
0.000149881
0.000139805
0.00013149
0.000124498
0.000118815
0.000114607
0.000111954
0.000110771
0.000110878
0.00011209
0.000114285
0.000117301
0.000121087
0.000125681
0.000131193
0.000137588
0.000144924
0.000153247
0.000162618
0.000173087
0.000184587
0.000197689
0.000201068
0.000183508
0.00017126
0.000193765
0.000484856
0.000563692
0.000358942
)
;
    }
    sWall
    {
        type            compressible::alphatWallFunction;
        Prt             0.85;
        value           uniform 0.0003179;
    }
    nWall
    {
        type            compressible::alphatWallFunction;
        Prt             0.85;
        value           nonuniform List<scalar> 6(0.00014169 0.000148743 0.000170293 0.000193947 0.000199901 0.000193417);
    }
    sideWalls
    {
        type            empty;
    }
    glass1
    {
        type            compressible::alphatWallFunction;
        Prt             0.85;
        value           nonuniform List<scalar> 9(0.000188574 0.000250813 0.000300532 0.000346775 0.000392973 0.000441293 0.000483484 0.000490443 0.000477478);
    }
    glass2
    {
        type            compressible::alphatWallFunction;
        Prt             0.85;
        value           nonuniform List<scalar> 2(0.000249826 0.000232374);
    }
    sun
    {
        type            compressible::alphatWallFunction;
        Prt             0.85;
        value           nonuniform List<scalar> 
14
(
0.000193491
0.000211876
0.000216648
0.0002271
0.00023695
0.000246457
0.000256253
0.000264012
0.000268489
0.00026876
0.000264194
0.000254211
0.000237817
0.000212195
)
;
    }
    heatsource1
    {
        type            compressible::alphatWallFunction;
        Prt             0.85;
        value           nonuniform List<scalar> 3(0.000105759 0.000126749 0.000142064);
    }
    heatsource2
    {
        type            compressible::alphatWallFunction;
        Prt             0.85;
        value           nonuniform List<scalar> 4(0.00020493 0.000143444 0.000143442 0.000215379);
    }
    Table_master
    {
        type            compressible::alphatWallFunction;
        Prt             0.85;
        value           nonuniform List<scalar> 9(0.000154937 0.000135862 0.000120276 0.00010757 9.71443e-05 8.85141e-05 8.13134e-05 7.53497e-05 7.05756e-05);
    }
    Table_slave
    {
        type            compressible::alphatWallFunction;
        Prt             0.85;
        value           nonuniform List<scalar> 9(0.00017454 0.000158251 0.000146163 0.000136555 0.000128283 0.00012088 0.000113686 0.000106165 9.75701e-05);
    }
    inlet
    {
        type            fixedValue;
        value           uniform 1.94e-05;
    }
    outlet
    {
        type            zeroGradient;
    }
}


// ************************************************************************* //
