/*--------------------------------*- C++ -*----------------------------------*=========                 |
  \      /  F ield         | OpenFOAM: The Open Source CFD Toolbox
   \    /   O peration     | Website:  https://openfoam.org
    \  /    A nd           | Version:  6
     \/     M anipulation  |
\*---------------------------------------------------------------------------*/
FoamFile
{
    version     2.0;
    format      ascii;
    class       volScalarField;
    location    "300";
    object      PPD;
}
// * * * * * * * * * * * * * * * * * * * * * * * * * * * * * * * * * * * * * //

dimensions      [0 0 0 0 0 0 0];

internalField   nonuniform List<scalar> 
459
(
40.711642370132985
29.380354191413417
28.710163202750536
27.659122214781974
26.92497924337988
26.421984702829178
26.18383220528618
26.1853662933854
26.47417754786622
27.01964209799219
27.88818495401935
29.171666144600508
30.984943085223364
33.02288056458285
33.08504673393254
30.571182941454325
30.592981814679447
30.61478836995859
30.223449773164376
29.856162006578714
29.44834882988853
28.916122722071847
28.3260059462921
27.618058234892032
26.838203423132143
26.05053598204728
25.27596072169075
24.553395916633875
23.90010983834678
23.388700420023937
22.95825192764505
22.661647814587752
22.422380288650217
22.828200238343726
37.97526979402382
30.06996619622818
30.505065988752804
29.449325120457885
28.84543875397597
28.48399477864011
28.34758844090277
28.430367983762366
28.684000168442992
29.077086770479525
29.626740468857577
30.43047088319804
31.47152686822919
32.55429092202293
33.17325082641034
33.85533929476796
32.74320212646255
27.255549764421076
31.848059233946387
31.449079970365005
31.074491691139656
30.789516766090415
30.41880634393644
29.72707130551005
28.979725577502123
28.200382746321978
27.432262549797414
26.675573750323593
25.93051311009937
25.23659566411436
24.57276589463754
23.97643138534781
23.445199202931562
23.032767513252708
22.551024270272933
19.261362991887196
40.43582463867508
29.732147200301767
32.15500491820727
31.39068916256349
31.204793562610703
31.14029103370737
31.17796947822815
31.361222782294135
31.616849483904645
31.754609995697976
31.819708389882862
31.94741176951851
32.273773253552434
32.78290455856745
33.522576560187545
34.75235073104139
34.291059634189196
30.119333321526852
33.149778610621794
32.63067487402853
32.29417510893023
32.07075053255318
31.848059233946387
31.074491691139656
30.20178225147852
29.40558724521118
28.683533050084876
27.991667069865883
27.329334818734466
26.71618027638162
26.110663679451235
25.55249384813098
25.216926258299154
24.883888266052082
23.38395351996577
18.273240373419156
44.836417221356804
29.572268599346557
33.33144875884807
33.25223142073604
33.7883301661557
34.305106034449224
34.80231751219645
35.2449234019974
35.43294968569239
35.046720490253804
34.21574112540695
33.39720767811471
32.93205529681356
32.96442716985568
33.509454551024575
34.89037944763369
34.798626806525505
31.639500156873837
34.130244676530126
33.741087256755506
33.42210313074959
33.21776477067115
33.05922931688704
32.946202195535506
33.013997167810885
33.05922931688704
33.10448981315561
33.149778610621794
33.04826827904003
31.957626853183555
31.195930960607697
30.892346292658914
31.34850499186328
31.537533603525915
28.746869654019534
23.88105185646853
15.650659482885573
50.03736355870901
30.171651525047324
34.2796365067406
34.91992991991931
36.428679268115914
37.978629466209505
39.358866670831155
40.31043577778944
40.18279871329906
38.60948270222199
36.403058457911555
34.52410593984999
33.40309699206772
33.157372225374175
33.68311521076704
34.91991547148184
35.007196626953714
34.72922265460332
34.475254031169456
34.26806572007665
34.10729829961218
33.96976337191569
33.85533929476796
33.809617793001735
33.85533929476796
33.878210371010965
33.9010883228443
33.92397314427389
33.92397314427389
33.878210371010965
33.11584598616419
32.34138153626756
31.77803593484157
30.9564953669543
28.591458245799288
25.23494484698587
25.079485688927278
26.838203423132143
28.66243704123721
18.075808223234404
55.19745409295552
31.86053030289291
36.191376973293245
36.60734989207187
38.7705666486412
41.92568332962305
44.2607720559054
45.829079722734846
44.64329240396223
40.93147912686245
37.472498681388885
34.90174386902035
33.56677538715688
33.324034181796534
34.05702772178587
35.633839939814266
35.23956517300624
35.007196626953714
34.86809063230673
34.798626806525505
34.75235073104139
34.65987834546745
34.5444379379241
34.475254031169456
34.452206155674205
34.42916500383981
34.42916500383981
34.42916500383981
34.42916500383981
34.40613058182467
34.291059634189196
34.03850008509798
32.94910410233892
31.078954491031055
28.47555729919044
25.25129893421216
24.05363019483535
22.723638031348756
22.335696956407133
24.78999845195122
60.02996381504897
36.49192803821303
43.69443012298323
40.22580127379147
40.49560480762678
43.91859024719318
45.39777514768946
47.40937427512803
44.03334370582019
40.433379838089
36.98776687245831
34.45788877301361
33.24082881191106
33.32453058220155
34.480124573896816
35.77647281093148
35.47258472520873
35.30940297435765
35.286117207795826
35.37929919371369
35.4259290420342
35.286117207795826
35.100065515837386
34.96080159967123
34.89125847248269
34.84492940373555
34.84492940373555
34.84492940373555
34.86809063230673
34.86809063230673
34.775485450435056
34.5444379379241
34.03850008509798
33.34773980070803
30.2651157393897
27.289275956935455
25.32395682043034
23.74092327324317
21.756143819242098
25.1886148091252
67.51783734554638
56.1330833609629
54.269218645638205
46.597287410441496
43.99474227949356
43.705682922546764
43.854374784204644
43.15444302616748
41.30923310246204
38.175200175070415
34.93789238585016
32.79830773658354
32.23732085478068
33.06342224816693
35.05866868132763
35.77647281093148
35.65946477123573
35.65946477123573
35.799893528502636
36.034449120847256
36.15196315297865
35.870193782475326
35.54261657724739
35.3326952318143
35.23956517300624
35.19303917868358
35.1697859626789
35.216298917590095
35.26283793854226
35.286117207795826
35.26283793854226
35.12329912488548
34.798626806525505
34.10729829961218
33.37664549824126
32.67566423033104
32.361344654291244
32.316557686652544
26.612076515598815
19.179880407078556
77.61750900301507
70.9065940945447
61.903486892709225
53.749861611285006
48.26867989465713
45.19154635999319
43.47703543647924
41.69618619299872
38.169890420797664
34.2704830338925
31.417966271052805
30.321722935169092
31.00398369788246
33.187776496362176
35.636082318700616
35.72965046578213
35.89363987897448
36.12844780918116
36.411043318613345
36.76553809894566
36.90772032224566
36.38745953367429
35.89363987897448
35.65946477123573
35.54261657724739
35.49592223872294
35.49592223872294
35.54261657724739
35.19850096701555
34.06223416735973
32.871432499093174
31.625952545828014
30.33501127979649
29.12335964474333
28.02658276305604
26.891922101996826
25.940768595855005
25.34970063267245
24.70151222247587
22.903757596136927
80.17834901985096
6.0519010251542085
10.021990863631046
18.245108118629645
22.58879974599813
24.100191249518844
25.161217021252767
26.01233666374678
27.239465915835524
29.128372067429225
31.922702977825566
34.84492940373555
35.44925365749181
35.94055105022174
36.29318634489838
36.59993556942072
37.05011993286113
37.430903639301185
37.59797197912286
36.812907927526396
36.19901260002041
35.96401611177561
35.870193782475326
35.823320600662555
35.823320600662555
35.70117237577949
34.72775243966626
33.75576814593231
32.90566699904167
32.255796840029234
31.711290822553664
31.15120531382881
30.624014574898595
30.288849222339394
30.486184485268026
32.57235211331201
39.21116540006395
28.69285777801835
57.35984733860712
5.723783014733328
10.093804125395337
16.896075853985693
20.88446229636456
23.13074010844538
25.160807610032165
28.043514206724737
31.702563343550196
33.58142484857788
34.56751264632622
35.49592223872294
36.17548475214922
36.52905483277226
36.76553809894566
37.02637163127231
37.16157706368045
37.956935378668746
37.56684082363025
37.192735439263856
34.94710538344995
34.84411346787424
35.89279092173909
35.44513723513367
34.59645304075882
33.93783084878066
33.481432542305484
33.25161951700271
33.30824212568304
33.51267205304097
33.85725242841177
34.19928669982721
34.44642266811299
34.75273059314419
35.97804685562228
37.438256147642555
31.331814899031784
36.30644211659584
21.97937316817925
24.74556620070851
20.80405218561586
5.450362433906619
11.77887498930967
19.31745179038508
23.233780427835796
20.950060736987496
19.99358885829743
21.939311784309368
25.710196026101215
27.42605663293682
28.314398850846175
29.225789273155186
29.53246291523689
29.770477335130607
30.35284168878168
31.47144444025089
32.787174459072574
29.16465485630866
28.00667833553129
27.539435904911173
28.03000368853678
27.29734200116627
27.09675500131712
27.043666872368348
27.04966403975243
27.12020202417257
27.25821318579912
27.567019639523963
28.238004848541067
29.20539256065372
30.734719974718416
33.11604786006015
36.861608368574295
36.90270876834371
33.35101165603271
29.249275222943766
30.198258799194505
25.883768922095314
)
;

boundaryField
{
    ".*"
    {
        type            zeroGradient;
    }
}


// ************************************************************************* //
