// -*- C++ -*-
// File generated by PyFoam - sorry for the ugliness

FoamFile
{
 version 2.0;
 format ascii;
 class volVectorField;
 location "2200";
 object U;
}

dimensions [ 0 1 -1 0 0 0 0 ];

internalField nonuniform List<vector> 459
(
  (0.033453 0.0881785 0)
  (-0.171548 0.0264494 0)
  (-0.196668 0.0178806 0)
  (-0.227392 0.0119437 0)
  (-0.249083 0.00544753 0)
  (-0.260794 -0.00134428 0)
  (-0.261096 -0.00844182 0)
  (-0.249295 -0.0158097 0)
  (-0.226312 -0.0227316 0)
  (-0.194136 -0.0281229 0)
  (-0.156153 -0.0311585 0)
  (-0.116078 -0.0315645 0)
  (-0.077425 -0.029721 0)
  (-0.0452458 -0.0270981 0)
  (-0.0346104 -0.0254803 0)
  (-0.00251482 0.00871563 0)
  (-0.0280759 -0.0194149 0)
  (-0.00279875 -0.0292054 0)
  (0.021251 -0.0216584 0)
  (0.0382155 -0.0145422 0)
  (0.0510442 -0.00927005 0)
  (0.0587378 -0.00551996 0)
  (0.0626027 -0.00356235 0)
  (0.0643472 -0.00271826 0)
  (0.065247 -0.00230951 0)
  (0.0658143 -0.00204376 0)
  (0.0661219 -0.0018288 0)
  (0.0661074 -0.00157642 0)
  (0.0655675 -0.00111281 0)
  (0.0639389 -5.6617e-05 0)
  (0.0600188 0.00212097 0)
  (0.0525071 0.00437929 0)
  (0.04611 0.00616023 0)
  (-0.0153128 0.0226671 0)
  (0.209845 0.180151 0)
  (-0.158655 0.0695706 0)
  (-0.157192 0.0529231 0)
  (-0.188596 0.0404059 0)
  (-0.209849 0.026372 0)
  (-0.22163 0.0108926 0)
  (-0.222461 -0.00613245 0)
  (-0.211624 -0.0238456 0)
  (-0.190605 -0.039843 0)
  (-0.161714 -0.0517129 0)
  (-0.128386 -0.0578862 0)
  (-0.0940481 -0.0580928 0)
  (-0.0618347 -0.052951 0)
  (-0.0352046 -0.0440191 0)
  (-0.0184777 -0.0330923 0)
  (-0.00476527 -0.0150495 0)
  (-0.00480319 0.0172356 0)
  (0.07343 0.0363211 0)
  (0.0311852 -0.0200055 0)
  (0.0385971 -0.0333079 0)
  (0.0503551 -0.028715 0)
  (0.0594696 -0.0199178 0)
  (0.0656102 -0.0117942 0)
  (0.0681008 -0.00492086 0)
  (0.0684845 -0.0011123 0)
  (0.0683891 0.00049751 0)
  (0.0684699 0.00122985 0)
  (0.0686424 0.00167914 0)
  (0.0687646 0.00205494 0)
  (0.0687933 0.00253361 0)
  (0.0686753 0.00345718 0)
  (0.0678682 0.00574375 0)
  (0.0638844 0.0120997 0)
  (0.0538263 0.0173507 0)
  (0.0501779 0.0207206 0)
  (-0.0571715 0.0489359 0)
  (0.371058 0.269051 0)
  (-0.173756 0.110211 0)
  (-0.117495 0.0851221 0)
  (-0.147342 0.0630133 0)
  (-0.165844 0.0400284 0)
  (-0.176238 0.0150326 0)
  (-0.176055 -0.012414 0)
  (-0.164369 -0.0404446 0)
  (-0.143825 -0.0648139 0)
  (-0.117334 -0.0818885 0)
  (-0.088402 -0.0897534 0)
  (-0.0597121 -0.088704 0)
  (-0.0333328 -0.0798482 0)
  (-0.0113565 -0.0649879 0)
  (0.00505182 -0.0446999 0)
  (0.0164926 -0.0191556 0)
  (0.0226387 0.017418 0)
  (0.12032 -0.0369036 0)
  (0.0787831 -0.0439974 0)
  (0.072808 -0.0417046 0)
  (0.0746448 -0.034155 0)
  (0.0759779 -0.0246553 0)
  (0.0767699 -0.0164824 0)
  (0.0749982 -0.0132111 0)
  (0.0705467 -0.00930187 0)
  (0.0674584 -0.00717612 0)
  (0.066074 -0.00595888 0)
  (0.065478 -0.00518281 0)
  (0.0651842 -0.00464342 0)
  (0.0652101 -0.00414232 0)
  (0.0660288 -0.00330783 0)
  (0.0688549 -0.000133345 0)
  (0.0665237 0.0173559 0)
  (0.0521887 0.0294904 0)
  (0.0570436 0.037227 0)
  (-0.0946047 0.0755679 0)
  (0.51586 0.340308 0)
  (-0.20674 0.146084 0)
  (-0.0763515 0.112131 0)
  (-0.103586 0.0817394 0)
  (-0.116279 0.0519801 0)
  (-0.122354 0.0188929 0)
  (-0.117491 -0.0188552 0)
  (-0.102658 -0.0571682 0)
  (-0.0822109 -0.0886031 0)
  (-0.0592031 -0.109122 0)
  (-0.0366802 -0.117222 0)
  (-0.0157914 -0.114453 0)
  (0.00303028 -0.102153 0)
  (0.018726 -0.0830272 0)
  (0.0322617 -0.0593164 0)
  (0.0470204 -0.0322339 0)
  (0.0695602 -0.00247591 0)
  (0.101696 0.0124451 0)
  (0.107835 -0.0291023 0)
  (0.0923999 -0.0381737 0)
  (0.0830812 -0.0353258 0)
  (0.078451 -0.0295885 0)
  (0.0752384 -0.0221912 0)
  (0.0735406 -0.0132615 0)
  (0.0752766 -0.00776214 0)
  (0.0797814 -0.00599066 0)
  (0.0834565 -0.00497885 0)
  (0.0858191 -0.00418885 0)
  (0.087107 -0.00321096 0)
  (0.0866825 -0.00177831 0)
  (0.0835495 0.00030364 0)
  (0.076473 0.00332695 0)
  (0.0624783 0.00786398 0)
  (0.0508596 0.0286318 0)
  (0.0383948 0.0455893 0)
  (0.0607926 0.0582199 0)
  (-0.139816 0.098127 0)
  (0.639959 0.39537 0)
  (-0.247284 0.175281 0)
  (-0.0366753 0.12705 0)
  (-0.0579039 0.0917659 0)
  (-0.0619903 0.057934 0)
  (-0.0597512 0.0184162 0)
  (-0.0433761 -0.0292984 0)
  (-0.0242089 -0.075189 0)
  (-0.00561938 -0.109514 0)
  (0.0109794 -0.129757 0)
  (0.0236816 -0.135199 0)
  (0.0337283 -0.129561 0)
  (0.0414616 -0.11521 0)
  (0.0477495 -0.094765 0)
  (0.053793 -0.0708611 0)
  (0.061492 -0.046544 0)
  (0.0735484 -0.0276937 0)
  (0.0842444 -0.0258237 0)
  (0.0852935 -0.0338883 0)
  (0.0782306 -0.0337843 0)
  (0.069559 -0.0294657 0)
  (0.0628068 -0.0242713 0)
  (0.0579476 -0.0185797 0)
  (0.0552675 -0.0124328 0)
  (0.0552474 -0.00678006 0)
  (0.0575152 -0.00412923 0)
  (0.06005 -0.00311252 0)
  (0.0624583 -0.00221108 0)
  (0.064617 -0.000421351 0)
  (0.0660852 0.00273604 0)
  (0.0656713 0.00732745 0)
  (0.0628276 0.0135092 0)
  (0.0568345 0.0219642 0)
  (0.0497068 0.0378111 0)
  (0.0383364 0.0569497 0)
  (0.0681849 0.0780965 0)
  (-0.0381571 0.110196 0)
  (0.0474067 0.0248265 0)
  (-0.0692219 -0.0376146 0)
  (-0.285958 -0.0611887 0)
  (0.729183 0.44104 0)
  (-0.286494 0.194501 0)
  (-0.00692847 0.121267 0)
  (-0.00972027 0.0896416 0)
  (-0.000812225 0.0546703 0)
  (0.0187003 0.00635138 0)
  (0.0485985 -0.0489524 0)
  (0.0684 -0.0930911 0)
  (0.0808307 -0.12289 0)
  (0.0865534 -0.138297 0)
  (0.086895 -0.140598 0)
  (0.0836487 -0.132364 0)
  (0.0782915 -0.11638 0)
  (0.0723901 -0.0955311 0)
  (0.0673914 -0.0725507 0)
  (0.0645626 -0.0503892 0)
  (0.0646534 -0.0330615 0)
  (0.0646698 -0.0255432 0)
  (0.0606956 -0.0248823 0)
  (0.0528735 -0.0241368 0)
  (0.0442628 -0.0214886 0)
  (0.0372594 -0.0180556 0)
  (0.0323543 -0.0143749 0)
  (0.0297898 -0.010601 0)
  (0.0296238 -0.0075125 0)
  (0.0313878 -0.00641951 0)
  (0.0340517 -0.00628562 0)
  (0.0372206 -0.00580685 0)
  (0.0407011 -0.0039533 0)
  (0.0443416 0.000120634 0)
  (0.047321 0.00650604 0)
  (0.0488209 0.0148555 0)
  (0.049109 0.025427 0)
  (0.0497579 0.0401109 0)
  (0.0477605 0.0587021 0)
  (0.0763762 0.0834497 0)
  (0.0479296 0.102785 0)
  (0.0975344 0.068404 0)
  (0.122204 0.0447538 0)
  (-0.138381 -0.00985548 0)
  (0.785826 0.482808 0)
  (-0.304311 0.178981 0)
  (0.0239325 0.0651284 0)
  (0.0575711 0.0552537 0)
  (0.0836796 0.0299708 0)
  (0.127345 -0.023525 0)
  (0.156083 -0.071839 0)
  (0.170107 -0.106357 0)
  (0.171364 -0.126884 0)
  (0.162487 -0.134761 0)
  (0.146594 -0.131786 0)
  (0.126779 -0.120383 0)
  (0.10572 -0.103299 0)
  (0.0856503 -0.0831785 0)
  (0.0681787 -0.0622276 0)
  (0.0542828 -0.042784 0)
  (0.0442184 -0.027745 0)
  (0.0364182 -0.0195397 0)
  (0.0286371 -0.0167584 0)
  (0.0203549 -0.0156531 0)
  (0.0126908 -0.0141946 0)
  (0.00670334 -0.0124925 0)
  (0.00268223 -0.0108254 0)
  (0.000736421 -0.00932139 0)
  (0.000797381 -0.00845421 0)
  (0.00237733 -0.00871479 0)
  (0.00480932 -0.00940784 0)
  (0.00785655 -0.00959834 0)
  (0.0115751 -0.00838459 0)
  (0.0161265 -0.00472073 0)
  (0.0226923 0.00234597 0)
  (0.0287868 0.0114991 0)
  (0.0347641 0.0221123 0)
  (0.0425855 0.0349757 0)
  (0.0505707 0.0498955 0)
  (0.0767759 0.0699102 0)
  (0.0896628 0.0776343 0)
  (0.126422 0.0509852 0)
  (0.168663 0.0418803 0)
  (-0.0322 0.0952656 0)
  (0.893722 0.48233 0)
  (-0.0565413 0.157418 0)
  (0.119298 -0.0235212 0)
  (0.207169 -0.0592482 0)
  (0.252692 -0.0722683 0)
  (0.277941 -0.0888857 0)
  (0.287147 -0.104355 0)
  (0.279678 -0.114236 0)
  (0.257675 -0.117364 0)
  (0.22537 -0.11393 0)
  (0.187453 -0.104754 0)
  (0.148029 -0.0910742 0)
  (0.110386 -0.0747016 0)
  (0.0768458 -0.0574247 0)
  (0.0486572 -0.0404832 0)
  (0.0265306 -0.025488 0)
  (0.0106493 -0.0147617 0)
  (-0.000471299 -0.00938046 0)
  (-0.00873678 -0.00801243 0)
  (-0.0155978 -0.00800054 0)
  (-0.0212651 -0.00803465 0)
  (-0.0255624 -0.00802344 0)
  (-0.0284986 -0.00810094 0)
  (-0.0301169 -0.0083925 0)
  (-0.030579 -0.00910376 0)
  (-0.0302772 -0.0103055 0)
  (-0.0296061 -0.0116439 0)
  (-0.0286621 -0.0126386 0)
  (-0.0272569 -0.0127867 0)
  (-0.0249408 -0.0114896 0)
  (-0.0206212 -0.00798338 0)
  (-0.0107871 -0.00160607 0)
  (-0.00143394 0.00646717 0)
  (0.010349 0.0146854 0)
  (0.0227561 0.0216569 0)
  (0.0453499 0.0300027 0)
  (0.0655235 0.0235786 0)
  (0.0846836 -0.00274855 0)
  (0.145233 0.051088 0)
  (-0.474177 0.21786 0)
  (1.04591 0.426903 0)
  (0.49545 0.278749 0)
  (0.514545 0.173035 0)
  (0.549659 0.0952335 0)
  (0.529918 0.0416143 0)
  (0.482496 -0.00100982 0)
  (0.42767 -0.0323155 0)
  (0.367686 -0.0514839 0)
  (0.303349 -0.0597558 0)
  (0.23802 -0.0596116 0)
  (0.17577 -0.0537376 0)
  (0.119519 -0.0441473 0)
  (0.0714883 -0.032968 0)
  (0.0322185 -0.0218689 0)
  (0.00100544 -0.0117239 0)
  (-0.020764 -0.00463492 0)
  (-0.0331728 -0.00157386 0)
  (-0.0407871 -0.000945386 0)
  (-0.0460779 -0.00161097 0)
  (-0.0505816 -0.00266292 0)
  (-0.0544629 -0.00371812 0)
  (-0.0577374 -0.00475777 0)
  (-0.0604676 -0.00584938 0)
  (-0.0627702 -0.00703131 0)
  (-0.0648751 -0.00833365 0)
  (-0.0671311 -0.00968156 0)
  (-0.0698916 -0.0108066 0)
  (-0.073446 -0.0113218 0)
  (-0.0780943 -0.0107407 0)
  (-0.0842631 -0.00843703 0)
  (-0.0925351 -0.0036541 0)
  (-0.102846 0.00416362 0)
  (-0.113522 0.0146652 0)
  (-0.129232 0.0279548 0)
  (-0.154012 0.0438568 0)
  (-0.189995 0.0608563 0)
  (-0.241704 0.0745327 0)
  (-0.303422 0.0826984 0)
  (-0.380942 0.0861644 0)
  (-0.655139 0.0802975 0)
  (-0.18154 -0.0202481 0)
  (0.10061 -0.0347967 0)
  (0.177451 -0.054549 0)
  (0.164801 -0.0472867 0)
  (0.145924 -0.0343572 0)
  (0.122158 -0.0225996 0)
  (0.0905584 -0.0125552 0)
  (0.0549879 -0.00467991 0)
  (0.0202347 0.0007679 0)
  (-0.0125751 0.00438744 0)
  (-0.0366038 0.00573834 0)
  (-0.0540931 0.0058812 0)
  (-0.0654081 0.00498601 0)
  (-0.0714043 0.00296288 0)
  (-0.0747963 0.000476906 0)
  (-0.0771508 -0.00207662 0)
  (-0.0793089 -0.00465382 0)
  (-0.0815737 -0.00705203 0)
  (-0.0841374 -0.00907085 0)
  (-0.0869156 -0.0104982 0)
  (-0.0897518 -0.0115104 0)
  (-0.0927345 -0.0121791 0)
  (-0.0960525 -0.0125445 0)
  (-0.099893 -0.012556 0)
  (-0.104365 -0.0120126 0)
  (-0.10944 -0.0105675 0)
  (-0.114903 -0.00776194 0)
  (-0.120334 -0.00307365 0)
  (-0.125111 0.00386992 0)
  (-0.128758 0.0133259 0)
  (-0.131659 0.0262113 0)
  (-0.134094 0.0430285 0)
  (-0.136863 0.0631835 0)
  (-0.140127 0.083554 0)
  (-0.140046 0.0958518 0)
  (-0.117898 0.0856093 0)
  (-0.042109 0.028505 0)
  (-0.209294 -0.186749 0)
  (0.0352699 0.198269 0)
  (0.0143419 0.0641428 0)
  (-0.0315697 0.0119726 0)
  (-0.054862 0.0110919 0)
  (-0.0728757 0.0170559 0)
  (-0.0862061 0.0215166 0)
  (-0.0952695 0.0252271 0)
  (-0.10211 0.0283638 0)
  (-0.107059 0.0303431 0)
  (-0.110361 0.0308918 0)
  (-0.111815 0.0304629 0)
  (-0.111886 0.0302349 0)
  (-0.110816 0.0304329 0)
  (-0.109158 0.031101 0)
  (-0.107547 0.032434 0)
  (-0.106253 0.0343368 0)
  (-0.105408 0.0363883 0)
  (-0.105045 0.0380807 0)
  (-0.105143 0.0389332 0)
  (-0.105596 0.0385033 0)
  (-0.106439 0.0372329 0)
  (-0.107663 0.0355757 0)
  (-0.109265 0.033642 0)
  (-0.111217 0.0315161 0)
  (-0.113448 0.0293024 0)
  (-0.115815 0.0271094 0)
  (-0.11807 0.0250123 0)
  (-0.119731 0.023251 0)
  (-0.119997 0.0230642 0)
  (-0.117702 0.0256429 0)
  (-0.111399 0.0320015 0)
  (-0.0998958 0.0430511 0)
  (-0.0833139 0.05864 0)
  (-0.0631712 0.0748062 0)
  (-0.0423931 0.0820271 0)
  (0.0394034 0.0329943 0)
  (0.150383 -0.0588126 0)
  (-0.0518115 -0.0627493 0)
  (-0.0910233 -0.346504 0)
  (-0.446696 -0.138567 0)
  (-0.333414 0.0442181 0)
  (-0.29129 -0.0447466 0)
  (-0.250438 -0.0513281 0)
  (-0.239097 -0.0439682 0)
  (-0.231128 -0.0369658 0)
  (-0.22193 -0.0325531 0)
  (-0.210445 -0.0303249 0)
  (-0.196914 -0.0303815 0)
  (-0.182283 -0.0332553 0)
  (-0.167928 -0.0389681 0)
  (-0.15507 -0.0467824 0)
  (-0.144339 -0.0554498 0)
  (-0.135839 -0.0643969 0)
  (-0.129424 -0.0733729 0)
  (-0.124728 -0.0820227 0)
  (-0.121308 -0.0899318 0)
  (-0.118825 -0.0966737 0)
  (-0.11707 -0.101807 0)
  (-0.115955 -0.10499 0)
  (-0.115494 -0.106053 0)
  (-0.115665 -0.105295 0)
  (-0.116341 -0.103273 0)
  (-0.117358 -0.100152 0)
  (-0.118548 -0.0960204 0)
  (-0.119691 -0.0908781 0)
  (-0.120477 -0.0846166 0)
  (-0.120506 -0.0769888 0)
  (-0.119249 -0.0678575 0)
  (-0.115745 -0.0577935 0)
  (-0.108165 -0.0467167 0)
  (-0.0939277 -0.0343017 0)
  (-0.070886 -0.0198483 0)
  (-0.0395031 -0.00285589 0)
  (0.0053803 0.016215 0)
  (0.0465792 0.00807248 0)
  (0.107584 -0.046523 0)
  (0.119368 -0.0879513 0)
  (-0.517208 0.0111629 0)
)
;

boundaryField
{
  floor
  {
    type noSlip;
  }
  ceiling
  {
    type noSlip;
  }
  sWall
  {
    type noSlip;
  }
  nWall
  {
    type noSlip;
  }
  sideWalls
  {
    type empty;
  }
  glass1
  {
    type noSlip;
  }
  glass2
  {
    type noSlip;
  }
  sun
  {
    type noSlip;
  }
  heatsource1
  {
    type noSlip;
  }
  heatsource2
  {
    type noSlip;
  }
  Table_master
  {
    type noSlip;
  }
  Table_slave
  {
    type noSlip;
  }
  inlet
  {
    type fixedValue;
    value uniform (0.277164 -0.114805 0);
  }
  outlet
  {
    type zeroGradient;
  }
} 	// ************************************************************************* //

