/*--------------------------------*- C++ -*----------------------------------*\
  =========                 |
  \\      /  F ield         | OpenFOAM: The Open Source CFD Toolbox
   \\    /   O peration     | Website:  https://openfoam.org
    \\  /    A nd           | Version:  6
     \\/     M anipulation  |
\*---------------------------------------------------------------------------*/
FoamFile
{
    version     2.0;
    format      ascii;
    class       surfaceScalarField;
    location    "2100";
    object      phi;
}
// * * * * * * * * * * * * * * * * * * * * * * * * * * * * * * * * * * * * * //

dimensions      [1 0 -1 0 0 0 0];

internalField   nonuniform List<scalar> 
852
(
-0.00304103
0.00310082
-0.00412328
0.00108225
-0.00492674
0.000803461
-0.00553945
0.000612704
-0.00592965
0.000390205
-0.0060736
0.000143944
-0.0059503
-0.000123294
-0.00554952
-0.000400785
-0.00489774
-0.000651776
-0.00406058
-0.000837166
-0.00312891
-0.000931665
-0.00219907
-0.000929843
-0.00135633
-0.000842737
-0.000640312
-0.00071602
-0.000638251
-0.000806847
0.000810532
-0.000465185
-0.000341661
0.000211474
-0.000676659
0.000749512
-0.000538038
0.00111125
-0.000361737
0.00133869
-0.000227442
0.00146235
-0.000123662
0.00152267
-6.03126e-05
0.00155615
-3.34876e-05
0.00157646
-2.03046e-05
0.00158766
-1.11977e-05
0.00159114
-3.48934e-06
0.00158507
6.0747e-06
0.00156072
2.43512e-05
0.00149458
6.61365e-05
0.00134731
0.000147277
0.00110587
0.000241432
0.00080794
0.000297933
0.000812922
-0.00216462
0.00542606
-0.00321052
0.00212814
-0.00403207
0.00162501
-0.00463341
0.00121404
-0.00501633
0.000773128
-0.00516566
0.000293277
-0.00505785
-0.000231101
-0.00468919
-0.000769452
-0.00409837
-0.0012426
-0.00335742
-0.00157811
-0.00255304
-0.00173605
-0.00176546
-0.00171742
-0.00106624
-0.00154196
-0.000531508
-0.00125075
-0.000302931
-0.000866828
5.36048e-05
-0.000356587
5.35533e-05
0.000377754
0.000443382
0.000818095
-0.000782002
0.00108989
-0.000948455
0.00132484
-0.000772983
0.00150521
-0.000542115
0.00161448
-0.000336708
0.00163226
-0.000141444
0.0016366
-6.46481e-05
0.00164186
-3.87519e-05
0.00164628
-2.47205e-05
0.00164916
-1.40801e-05
0.00165051
-4.8402e-06
0.00164948
7.10142e-06
0.00164228
3.15552e-05
0.00159827
0.000110144
0.00141087
0.000334674
0.00109055
0.000561753
0.000693937
0.00069455
0.00151951
-0.00151047
0.00718192
-0.00240882
0.00302648
-0.00313233
0.00234853
-0.003642
0.00172371
-0.00396898
0.00110011
-0.00409222
0.00041651
-0.00396806
-0.000355258
-0.00359636
-0.00114115
-0.00303955
-0.00179941
-0.00237858
-0.00223908
-0.0016931
-0.00242153
-0.00104063
-0.00236989
-0.000468331
-0.00211425
-1.1994e-05
-0.00170709
0.000290204
-0.00116903
0.000443849
-0.000510231
0.000497402
0.00161343
-0.00115875
0.00184515
-0.00101373
0.00180377
-0.000907077
0.00179563
-0.000764839
0.00182064
-0.000567126
0.00184565
-0.000361719
0.00170436
0.00163987
0.00160127
0.0015767
0.00156277
0.00155809
0.00156534
0.00159705
0.00170735
0.00139948
0.000642549
0.00103183
0.000929402
0.000584063
0.00114231
0.00212267
-0.00104995
0.00854944
-0.00175811
0.00373464
-0.00222905
0.00281947
-0.00255271
0.00204737
-0.00274957
0.00129697
-0.00277791
0.000444851
-0.00257311
-0.000560056
-0.00216722
-0.00154705
-0.00165305
-0.00231357
-0.00110681
-0.00278533
-0.000585866
-0.00294247
-0.000114935
-0.00284082
0.00029237
-0.00252156
0.00063487
-0.00204959
0.000948532
-0.00148269
0.00132084
-0.000882541
0.00218562
-0.000367374
0.00264025
-0.000444413
0.0022116
-0.000730107
0.00206695
-0.000869071
0.00194215
-0.000782274
0.00183555
-0.000658241
0.00177696
-0.000508538
0.00174795
-0.000332707
0.00189116
-0.00014337
0.00198167
-9.06617e-05
0.00205292
-7.14004e-05
0.00210461
-5.18485e-05
0.00212058
-1.61216e-05
0.00207855
4.18765e-05
0.00195366
0.000124741
0.00171327
0.000240239
0.0013006
0.000412508
0.00114873
0.000794425
0.000823219
0.00125491
0.000331528
0.001634
0.00247918
-0.000732047
0.00966038
-0.00126598
0.00426858
-0.00134909
0.00290258
-0.0013843
0.00208259
-0.0013646
0.00127727
-0.00118051
0.000260758
-0.000811201
-0.000929366
-0.000373133
-0.00198512
4.61598e-05
-0.00273287
0.000401938
-0.0031411
0.000683821
-0.00322435
0.000897435
-0.00305444
0.0010654
-0.00268952
0.0012127
-0.0021969
0.00137272
-0.0016427
0.00159236
-0.00110218
0.00191206
-0.000687072
0.00203177
-0.000564124
0.00193174
-0.000630076
0.00174019
-0.000677529
0.00157806
-0.000620143
0.00144557
-0.000525748
0.00135541
-0.000418372
0.00132266
-0.000299962
0.00137593
-0.000196642
0.00143691
-0.000151641
0.00150075
-0.000135243
0.00156238
-0.00011347
0.00160879
-6.25344e-05
0.00161857
3.21e-05
0.00157148
0.00017183
0.00145684
0.000354873
0.00127716
0.000592189
0.00111711
0.000954473
0.0009409
0.00143112
0.000540302
0.0020346
0.000414988
0.00260449
-0.00111605
0.00153083
-0.00157931
0.000463059
-0.0015253
-0.000635032
0.0107261
-0.000993383
0.00462693
-0.000533627
0.00244282
-9.76443e-05
0.0016466
0.000295035
0.000884591
0.000807793
-0.000252
0.00133277
-0.00145434
0.00171578
-0.00236812
0.00193529
-0.00295237
0.00201273
-0.00321855
0.00198944
-0.00320106
0.00189504
-0.00296004
0.00176728
-0.00256176
0.00164316
-0.00207278
0.00155387
-0.00155341
0.00152096
-0.00106927
0.001534
-0.000700104
0.00148955
-0.000519681
0.0013467
-0.000487221
0.00114992
-0.000480757
0.000974677
-0.000444895
0.000840137
-0.000391209
0.000754168
-0.000332403
0.000726725
-0.00027252
0.000756876
-0.000226793
0.000816981
-0.000211747
0.000892996
-0.000211257
0.000978498
-0.000198973
0.00106631
-0.000150349
0.00114005
-4.16345e-05
0.00118118
0.000130696
0.00119095
0.0003451
0.00117763
0.000605515
0.00119129
0.000940814
0.00128537
0.00133704
0.00146737
0.0018526
0.00195967
0.00211219
0.00224068
0.00124982
0.00185086
0.000852879
0.000390263
-0.000661696
0.0118657
-0.000513453
0.00447869
0.000720431
0.00120894
0.00164604
0.000720998
0.00250497
2.56526e-05
0.00329721
-0.00104424
0.00378103
-0.00193816
0.00395608
-0.00254318
0.0038689
-0.00286519
0.00358413
-0.00293378
0.00317334
-0.00279027
0.00270015
-0.00248685
0.00222226
-0.00208387
0.00178685
-0.00163736
0.00142292
-0.00118948
0.00114382
-0.00079017
0.000941092
-0.000497381
0.000766061
-0.000344649
0.000580858
-0.000302019
0.000396709
-0.000296607
0.00024133
-0.000289517
0.000127578
-0.000277456
5.97269e-05
-0.000264551
4.11069e-05
-0.0002539
6.68681e-05
-0.000252554
0.000120843
-0.000265722
0.000191935
-0.000282348
0.000278402
-0.00028544
0.000384399
-0.000256347
0.000514461
-0.000171696
0.000648267
-3.10928e-06
0.000776367
0.000217
0.00091679
0.000465091
0.00110905
0.000748556
0.00140635
0.00103974
0.00188312
0.00137583
0.00262255
0.00137276
0.0032197
0.000652669
0.00328384
0.000788739
0.00374345
0.00277178
0.00962912
0.00355352
0.00369695
0.00418104
0.000581424
0.00519268
-0.000290642
0.00611887
-0.000900537
0.00657605
-0.00150143
0.00658992
-0.00195203
0.00623323
-0.00218649
0.00559597
-0.00222793
0.00477831
-0.00211612
0.00387914
-0.0018911
0.00298098
-0.00158869
0.0021505
-0.00125339
0.00143441
-0.000921279
0.000851888
-0.000606958
0.000411733
-0.000350014
0.000105079
-0.000190727
-0.000111276
-0.000128295
-0.000282799
-0.000130496
-0.000426258
-0.000153148
-0.000540931
-0.000174844
-0.000624821
-0.000193567
-0.000678082
-0.00021129
-0.000701807
-0.000230175
-0.000701245
-0.000253116
-0.000686569
-0.000280399
-0.000663792
-0.000305125
-0.000631576
-0.000317656
-0.000580161
-0.000307762
-0.00048862
-0.000263237
-0.000326043
-0.000165687
-0.000122689
1.36461e-05
0.000105321
0.000237082
0.000387838
0.000466039
0.000731629
0.000695952
0.00118833
0.000919131
0.00167191
0.00088918
0.00180817
0.000516416
0.0009744
0.0016225
0.00501104
0.010222
0.0139151
0.0129803
0.00151623
0.0123582
0.000331468
0.0116
-0.000142394
0.0105544
-0.0004558
0.00924062
-0.000638251
0.00777154
-0.000717409
0.00624885
-0.000705233
0.00476015
-0.000627421
0.00338438
-0.000515329
0.0021711
-0.00037541
0.00115371
-0.000236001
0.000340745
-0.000108316
-0.000259653
-6.5597e-06
-0.000647719
3.8052e-05
-0.000875765
3.73188e-05
-0.0010202
1.61383e-05
-0.00113286
-1.78346e-05
-0.00123079
-5.52155e-05
-0.0013161
-8.95387e-05
-0.00138905
-0.000120612
-0.00145155
-0.000148791
-0.00150691
-0.000174814
-0.00156096
-0.000199065
-0.00162189
-0.000219474
-0.00169724
-0.000229774
-0.00179443
-0.000220466
-0.00192272
-0.000179471
-0.0020942
-9.17602e-05
-0.00231566
5.578e-05
-0.00257321
0.00027119
-0.00290954
0.000573413
-0.00342515
0.000981653
-0.00421749
0.00148829
-0.00534186
0.00204349
-0.00690613
0.00245345
-0.0087604
0.00237069
-0.00813268
0.000994786
-0.00279593
0.00437477
0.00337785
0.00335717
0.00134907
0.00364614
-0.000431366
0.00358135
-0.000391012
0.00312064
-0.000177536
0.00243199
-2.87582e-05
0.00162814
9.86152e-05
0.000803111
0.000197608
3.25912e-05
0.000255191
-0.000612831
0.000270012
-0.001095
0.000246171
-0.0014216
0.000218279
-0.00161314
0.000184983
-0.00171887
0.00014378
-0.00178514
0.000103587
-0.00183713
6.81352e-05
-0.00189121
3.62403e-05
-0.00195369
7.26465e-06
-0.00202267
-2.05542e-05
-0.00209487
-4.84119e-05
-0.0021718
-7.1859e-05
-0.00225634
-9.02823e-05
-0.00235196
-0.000103438
-0.0024616
-0.000109839
-0.00258556
-0.000105809
-0.0027205
-8.55332e-05
-0.00285778
-4.21864e-05
-0.00298257
3.30285e-05
-0.00308692
0.000160126
-0.00317527
0.000359542
-0.00325821
0.000656357
-0.00334772
0.00107116
-0.00344761
0.00158819
-0.00349901
0.00209489
-0.00341085
0.00236529
-0.00298522
0.00194505
-0.00165721
-0.000333216
-0.00436834
-0.000794894
0.00425707
-0.000352839
0.000907018
-0.00103164
0.000247439
-0.00155211
0.000129455
-0.00190537
0.000175726
-0.00216748
0.000233347
-0.00235303
0.00028417
-0.00248118
0.000325755
-0.00256384
0.000337854
-0.00260698
0.00031315
-0.00262304
0.000262234
-0.00261155
0.000206786
-0.00258098
0.000154415
-0.00254603
0.000108826
-0.00251624
7.38003e-05
-0.00249636
4.82509e-05
-0.00248893
2.88124e-05
-0.00249437
1.26994e-05
-0.00251086
-4.05886e-06
-0.00253839
-2.08849e-05
-0.00257609
-3.41578e-05
-0.00262312
-4.32513e-05
-0.00267844
-4.81163e-05
-0.00274026
-4.80155e-05
-0.002805
-4.10753e-05
-0.00286641
-2.4118e-05
-0.00291571
7.10813e-06
-0.00293775
5.5075e-05
-0.00290942
0.000131788
-0.00280368
0.000253807
-0.00258519
0.000437864
-0.0022253
0.000711273
-0.00172664
0.00108952
-0.00107272
0.00144097
-4.27519e-05
0.00133532
0.00127661
0.000625695
0.00159466
-0.000651264
-0.00268033
-0.00789291
-0.0111519
-0.00683963
-0.00590452
-0.00563791
-0.00549306
-0.00530427
-0.0050595
-0.00476505
-0.00442976
-0.00408277
-0.00376057
-0.00348913
-0.00327286
-0.00310867
-0.00298978
-0.00290566
-0.00284685
-0.00280729
-0.00278372
-0.00277685
-0.00278682
-0.00281012
-0.00284261
-0.00288011
-0.00291768
-0.00294852
-0.00296264
-0.0029458
-0.0028813
-0.00274041
-0.00247786
-0.00203163
-0.0013124
-0.000215356
0.0012325
0.0025744
0.00320664
0.00256217
)
;

boundaryField
{
    floor
    {
        type            calculated;
        value           nonuniform List<scalar> 
29
(
0
0
0
0
0
0
0
0
0
0
0
0
0
0
0
0
0
0
0
0
-4.98142e-06
-1.26469e-05
-1.91044e-05
-2.49764e-05
-2.06067e-06
-3.68478e-06
-1.06042e-05
-1.12941e-05
-1.02155e-05
)
;
    }
    ceiling
    {
        type            calculated;
        value           nonuniform List<scalar> 
43
(
-5.92191e-05
-5.69956e-05
-5.52114e-05
-2.80978e-05
-1.9165e-05
-1.54022e-05
-1.30641e-05
-1.14193e-05
-1.02805e-05
-9.53601e-06
-9.13735e-06
-9.05327e-06
-9.2067e-06
-9.47648e-06
-9.77532e-06
-1.00635e-05
-1.03269e-05
-1.05573e-05
-1.07426e-05
-1.08689e-05
-1.09279e-05
-1.09205e-05
-1.08621e-05
-1.07594e-05
-1.06178e-05
-1.04416e-05
-1.0234e-05
-9.99696e-06
-9.72922e-06
-9.42794e-06
-9.09958e-06
-8.74531e-06
-8.36583e-06
-7.95872e-06
-7.51896e-06
-6.88369e-06
-6.5743e-06
-6.54265e-06
-6.80112e-06
-6.44556e-06
6.32413e-06
3.89616e-06
-8.43295e-05
)
;
    }
    sWall
    {
        type            calculated;
        value           uniform -0.000279301;
    }
    nWall
    {
        type            calculated;
        value           nonuniform List<scalar> 6(-5.42146e-05 -6.47046e-05 -6.93531e-05 -8.48118e-05 -9.33454e-05 -0.000111716);
    }
    sideWalls
    {
        type            empty;
        value           nonuniform 0();
    }
    glass1
    {
        type            calculated;
        value           nonuniform List<scalar> 9(-5.97833e-05 -0.000160616 -0.000245389 -0.000317571 -0.000378896 -0.000430658 -0.000477923 -0.000535211 -0.000599235);
    }
    glass2
    {
        type            calculated;
        value           nonuniform List<scalar> 2(-0.000293192 -0.000325705);
    }
    sun
    {
        type            calculated;
        value           uniform 0;
    }
    heatsource1
    {
        type            calculated;
        value           nonuniform List<scalar> 3(2.05027e-07 2.04923e-07 2.04942e-07);
    }
    heatsource2
    {
        type            calculated;
        value           nonuniform List<scalar> 4(5.14187e-08 5.15259e-08 0 0);
    }
    Table_master
    {
        type            calculated;
        value           nonuniform List<scalar> 9(-1.53771e-07 -1.53865e-07 -1.53898e-07 -1.5392e-07 -1.53935e-07 -1.53945e-07 -1.53949e-07 -1.53943e-07 -1.53908e-07);
    }
    Table_slave
    {
        type            calculated;
        value           nonuniform List<scalar> 9(1.53629e-07 1.53651e-07 1.53628e-07 1.5361e-07 1.53606e-07 1.53609e-07 1.53629e-07 1.53679e-07 1.5377e-07);
    }
    inlet
    {
        type            calculated;
        value           uniform -0.00623639;
    }
    outlet
    {
        type            calculated;
        value           nonuniform List<scalar> 2(0.00823143 0.00331601);
    }
}


// ************************************************************************* //
