/*--------------------------------*- C++ -*----------------------------------*=========                 |
  \      /  F ield         | OpenFOAM: The Open Source CFD Toolbox
   \    /   O peration     | Website:  https://openfoam.org
    \  /    A nd           | Version:  6
     \/     M anipulation  |
\*---------------------------------------------------------------------------*/
FoamFile
{
    version     2.0;
    format      ascii;
    class       volScalarField;
    location    "2100";
    object      PPD;
}
// * * * * * * * * * * * * * * * * * * * * * * * * * * * * * * * * * * * * * //

dimensions      [0 0 0 0 0 0 0];

internalField   nonuniform List<scalar> 
459
(
59.390971387610165
47.674691138072944
46.269880947032924
45.01958150591928
44.200551735433784
43.73230285185378
43.59156901593922
43.770145644225884
44.287164693521206
45.204364606468324
46.57726641673737
48.49715169618411
51.056328374047254
53.02161795728176
53.28182197004301
56.766934992868464
56.0655286508298
55.80557747297542
55.90956761378341
56.0655286508298
56.1954725384153
56.121566680117525
55.875599130846595
55.839104827633804
55.88410998315474
55.960179056657395
56.06027651914078
56.19061638198824
56.3708828193071
56.655455773904585
57.18976806307067
57.67488031968676
57.882163393390044
58.529228198907674
57.34997890992542
48.80827047575771
48.36803210506516
47.22075130329488
46.56679446380606
46.17173615165447
46.0493902204378
46.15843962818456
46.404692255119556
46.85432953870635
47.64659180620898
48.94789622701796
50.80763845831156
52.55335464570715
52.605375850473266
52.605375850473266
52.605375850473266
54.83821349997135
55.571556510164804
55.36349284860401
55.43912157022259
55.117726511589346
54.873484333282875
54.79027874370811
54.84423812706704
54.90500256323139
54.94777805593965
54.95608113983631
54.99446951981995
55.04134230204101
55.12521447945135
55.262159382124324
55.679126089076306
56.66307094460853
56.974606935323216
56.5665113120254
59.623745754153795
48.968467008036605
50.282813631955214
49.7710633431624
49.63580534571229
49.59081135549002
49.67251846637678
49.691872096384344
49.46120061940932
49.084506800230685
48.90773640500188
49.209053426839766
50.19601252648307
51.881369166748776
52.44931919604626
52.57936496680451
52.65739926370233
49.89128410650854
52.052596758471914
52.73836635465036
53.22635731677593
53.77336386842108
54.12088093598726
54.30573272074924
54.74595795061755
55.0795100680678
55.220640790972794
55.28196350561547
55.337685617566045
55.33673052234955
55.26064965379787
55.02440410182471
55.12429490214548
56.098213190223916
55.677945183148445
53.214369215711756
63.69002546879356
49.27080841885797
51.82012145180917
52.37409851547183
53.32575240444047
54.17072023757756
54.847247309598366
54.57019033515359
53.13368122080905
51.15519578733035
49.51149532317448
48.65003179813588
48.82764346716809
49.94777352228769
51.64855573492277
52.631387286260384
51.76366181767141
49.57224089512265
49.51404747124212
51.01239505628486
52.422129342360606
53.577766599792234
54.5954140449817
55.3385915333856
55.62906476936387
55.54680938406874
55.49190343309292
55.55380244383713
55.6302831821199
55.81488554126778
56.15605932781353
56.81465969791988
58.023434687089214
57.693609163690375
56.8890875612022
54.605979110067715
50.852245374864374
68.36701738518911
50.39372489151866
53.29159683329918
54.87352880763189
57.47570166843946
60.42634611095111
61.692292738507575
59.190553195113736
55.31109903139267
51.54744913694217
48.8607187814306
47.41881463515519
47.23522355116751
48.14353531951886
49.70465876475377
51.149028346137584
51.512533714127045
51.32955579688467
51.795761942204784
53.13141549140424
54.741461191699635
56.20439019342777
57.42517663746584
58.35181978946638
58.87868279046825
58.99519330592687
59.02659621868518
59.01051698213962
58.93405730313401
58.850809925680586
58.816504928913595
58.89375718371618
58.991798433475715
58.24285804196773
56.824438356923544
53.63389224116337
53.305982709011715
60.3341641172584
59.62452008649286
50.806944274858864
72.81650302304195
52.72808286948059
56.177527541830244
57.78117547377708
61.513403318577616
63.015970565069196
62.34494151814234
58.08313201531674
53.85791254282301
49.9767122550076
47.132789242250105
45.688822510643604
45.72688631199138
46.9750191736369
48.99246663536662
51.165452197072234
52.85704429274562
54.00435579335291
55.32550857223808
56.9753805085393
58.01166293279154
58.787732020395175
59.45887675821541
59.94836145514146
60.359863428760725
60.66804377838084
60.92455342412733
61.07832022598126
61.12955213909733
61.07832022598126
60.89891537497559
60.61670788792813
60.18275918680909
58.817587118403836
56.95600873938622
53.62209042026408
53.491234350819546
54.35821393725477
54.29085505817165
54.95820509160224
77.0113717731401
57.90344476278494
64.2989752377261
62.92602783626941
62.74116197798311
61.33036015790746
58.442205635765
54.445936565946205
50.14948665967099
46.464635347613516
44.15251105866658
43.532841708782136
44.48582611058026
46.72006364697097
49.8069217192053
53.17388877418353
55.441521311506065
56.715005236230894
57.882163393390044
58.916909456365644
59.76812582215454
60.48831971656261
61.02707641098923
61.4111110204336
61.71783550995606
61.947573005623894
62.10058128069908
62.15155687017576
62.126070786157705
61.97308281174167
61.66674673031414
61.308768849325155
60.84763059006708
60.23948475792714
58.061724106212296
54.93783770514346
53.72417995891846
53.16877426154661
51.77552170093838
56.36987215702197
82.5780926499917
74.34781071149628
72.20478146520563
67.21208859714227
64.11767053709994
59.740090463811356
54.06314554852819
48.27409138143923
43.58383811157183
40.78954157670849
40.11582910741308
41.435118354439304
44.38708104021061
48.498093192535876
53.382693654454236
55.70157524429004
57.46749897042232
58.891078043001805
59.999835055065084
60.84763059006708
61.513403318577616
62.024092344227306
62.40622714415022
62.66054334476376
62.83834821140492
62.93986928552675
62.99060725787836
62.96524016109879
62.86373409409892
62.68595507369525
62.40622714415022
61.99858926156294
61.56453054760162
61.05269980077036
60.48831971656261
59.89687787344521
58.7937301639421
58.173735457590375
54.90005354413679
50.33669749453046
89.31042869302115
85.0155083147429
78.42319957520169
69.90591287111206
58.941970473016305
47.21515616018906
38.33865606032356
33.25383336311394
31.681740325674312
32.99474034426652
36.663047548678115
42.10764068612097
48.615459908624125
53.151715816140744
56.169485552383925
58.55508728891707
60.07702654807444
61.12955213909733
61.89654336795817
62.5079967200336
62.93986928552675
63.03807861122194
62.96920373645025
62.894538824949095
62.76741393755272
62.560211610355594
62.300463798221685
61.97474913855857
61.54305178333136
61.0275243137269
60.43334986403333
59.7799027171257
59.14695597270696
58.37464955432425
57.52780292535882
56.78132547857293
56.261734632512834
55.98100451181066
55.407328625886024
53.75257653220706
98.99557202864848
68.84723872642058
32.255910014045625
8.169935023669552
5.604451643815082
12.680563289405626
24.323255337332085
36.14223084861458
44.49213323962487
51.22781810450396
55.23343410224622
58.01166293279154
59.15930670922466
60.051740072320236
60.709481659422146
61.16457613715407
61.47786655756789
61.62062765956183
61.66582869685354
61.63135945562892
61.52133445560158
61.35381874445767
61.14503946381515
60.91322347124974
60.63126853304578
60.331734956221354
60.02861002994618
59.76709446554358
59.542235889576844
59.4016237910093
59.312606456507694
59.25875426660813
59.215326282465554
59.328686674091834
59.898391688524875
61.770902623042225
65.56407335808626
57.22513304345222
92.70490547746522
26.067557528646645
5.04167132494895
11.974536887862826
22.14456080217235
30.707485643602155
38.11717852104442
44.25263527990518
49.17324238362216
52.88726458762249
55.42612255017622
57.18463867493495
58.40787039017631
59.302743093509534
59.88783322503091
60.28408995320306
60.54528265391977
60.70691617779536
60.78565633388274
60.833285005643546
60.81277558757037
60.774178336768045
60.717124024277474
60.642818421260365
60.52908518919886
60.437081632669276
60.354621724384764
60.306629132198225
60.35161530273378
60.51170754876981
60.91287035162738
61.52477248840479
62.16789248855197
62.712259431124174
63.319157663598155
65.33973781939396
61.914075888371435
59.27494745928252
20.458630046461394
25.90070014447464
21.141842201576935
7.924602345059867
21.67281358177597
30.70845979263713
37.08934903049868
42.33715993754308
46.702849451386776
50.33663266495206
53.29002622609573
55.5405522260687
57.166058028346356
58.278347534289395
58.98600923348427
59.41253441088203
59.61846121180989
59.697715337254216
59.71240425569655
59.6897684269409
59.672885974127105
59.66372232785202
59.672525724167244
59.670199278534376
59.68262717403687
59.738319474973
59.789150356240704
59.875244036894784
60.04441613719414
60.26927971089042
60.641149140670066
61.2801430274515
62.4151382886119
64.42845261201214
65.87982535588081
66.20255895878398
64.46940744626562
62.25505650886462
60.029345687754144
60.30411190238893
)
;

boundaryField
{
    ".*"
    {
        type            zeroGradient;
    }
}


// ************************************************************************* //
