// -*- C++ -*-
// File generated by PyFoam - sorry for the ugliness

FoamFile
{
 version 2.0;
 format ascii;
 class volVectorField;
 location "2100";
 object U;
}

dimensions [ 0 1 -1 0 0 0 0 ];

internalField nonuniform List<vector> 459
(
  (0.0332293 0.0882638 0)
  (-0.171744 0.0265135 0)
  (-0.196992 0.0178667 0)
  (-0.227718 0.0118676 0)
  (-0.249313 0.00530731 0)
  (-0.260808 -0.00155413 0)
  (-0.260741 -0.00872312 0)
  (-0.248481 -0.0161572 0)
  (-0.224981 -0.0230993 0)
  (-0.192324 -0.0284473 0)
  (-0.153976 -0.0313753 0)
  (-0.113731 -0.0315945 0)
  (-0.0751723 -0.0294395 0)
  (-0.0433459 -0.0263107 0)
  (-0.033333 -0.0239777 0)
  (-0.00317488 0.00874484 0)
  (-0.0281952 -0.0195881 0)
  (-0.00254961 -0.0296434 0)
  (0.0219466 -0.0221546 0)
  (0.0394018 -0.0149894 0)
  (0.0526901 -0.00961592 0)
  (0.0607082 -0.00571411 0)
  (0.0647375 -0.00367079 0)
  (0.0665339 -0.0028005 0)
  (0.0674425 -0.00238608 0)
  (0.0680108 -0.00211573 0)
  (0.0683139 -0.00189293 0)
  (0.0682813 -0.00162575 0)
  (0.0676956 -0.00113393 0)
  (0.0659656 -2.0032e-05 0)
  (0.0618344 0.00226938 0)
  (0.0539408 0.00467205 0)
  (0.0467178 0.00664999 0)
  (-0.0141916 0.0229981 0)
  (0.20952 0.180332 0)
  (-0.158758 0.0697826 0)
  (-0.157472 0.0530012 0)
  (-0.188893 0.0403524 0)
  (-0.210076 0.0261631 0)
  (-0.221666 0.0104998 0)
  (-0.222146 -0.00672254 0)
  (-0.210882 -0.0245821 0)
  (-0.189401 -0.0406116 0)
  (-0.160107 -0.0523772 0)
  (-0.126492 -0.0583463 0)
  (-0.0920121 -0.0582629 0)
  (-0.0598039 -0.0527252 0)
  (-0.0332604 -0.0432812 0)
  (-0.0166274 -0.0318104 0)
  (-0.00301091 -0.0138481 0)
  (-0.00364596 0.0170739 0)
  (0.0722183 0.0367026 0)
  (0.0313714 -0.0207468 0)
  (0.0392512 -0.0341593 0)
  (0.0513744 -0.029557 0)
  (0.0608994 -0.020679 0)
  (0.0674294 -0.0123865 0)
  (0.0701365 -0.00514861 0)
  (0.0705671 -0.00112054 0)
  (0.0704627 0.000562422 0)
  (0.0705439 0.00130975 0)
  (0.0707272 0.00176231 0)
  (0.070858 0.0021431 0)
  (0.0708871 0.00263338 0)
  (0.0707597 0.00359405 0)
  (0.0699112 0.00598392 0)
  (0.065756 0.01262 0)
  (0.0553187 0.0181423 0)
  (0.0506039 0.0218302 0)
  (-0.0553061 0.0495527 0)
  (0.370654 0.26932 0)
  (-0.173725 0.110519 0)
  (-0.117722 0.0852444 0)
  (-0.147593 0.0629323 0)
  (-0.166061 0.0396919 0)
  (-0.176289 0.0143909 0)
  (-0.175735 -0.0133663 0)
  (-0.163634 -0.0416059 0)
  (-0.142683 -0.06598 0)
  (-0.115896 -0.0828392 0)
  (-0.0867809 -0.0903684 0)
  (-0.0580263 -0.0889002 0)
  (-0.0316621 -0.0795371 0)
  (-0.00976437 -0.0641635 0)
  (0.00666421 -0.043243 0)
  (0.0179106 -0.0177004 0)
  (0.0236397 0.0192294 0)
  (0.120634 -0.037035 0)
  (0.0796303 -0.0447731 0)
  (0.0739103 -0.0427902 0)
  (0.0759817 -0.0353174 0)
  (0.0776034 -0.0257649 0)
  (0.0787273 -0.0174816 0)
  (0.077128 -0.0139016 0)
  (0.0724993 -0.00972373 0)
  (0.0692507 -0.0074479 0)
  (0.0678115 -0.00614212 0)
  (0.06721 -0.00530324 0)
  (0.0669228 -0.00471309 0)
  (0.0669697 -0.00416231 0)
  (0.0678501 -0.00326348 0)
  (0.0708397 6.13255e-05 0)
  (0.0684904 0.0181767 0)
  (0.0538155 0.0307598 0)
  (0.0571646 0.0390129 0)
  (-0.0920642 0.0767247 0)
  (0.515439 0.340645 0)
  (-0.206583 0.146456 0)
  (-0.0765159 0.112311 0)
  (-0.103766 0.0816676 0)
  (-0.116462 0.0515521 0)
  (-0.122376 0.018001 0)
  (-0.11706 -0.0202106 0)
  (-0.101858 -0.0587522 0)
  (-0.0811128 -0.0901164 0)
  (-0.0579722 -0.110276 0)
  (-0.035383 -0.117934 0)
  (-0.0145106 -0.114665 0)
  (0.00432221 -0.101748 0)
  (0.019943 -0.0821584 0)
  (0.0335621 -0.0580173 0)
  (0.0485067 -0.0307139 0)
  (0.0711795 -0.000544314 0)
  (0.103798 0.013344 0)
  (0.109765 -0.0290852 0)
  (0.0942108 -0.0389237 0)
  (0.0848116 -0.0365011 0)
  (0.0801617 -0.0309091 0)
  (0.077 -0.0234907 0)
  (0.0753603 -0.0144276 0)
  (0.0774052 -0.00858301 0)
  (0.0825607 -0.00656567 0)
  (0.0868005 -0.0053913 0)
  (0.0895585 -0.00446994 0)
  (0.0910814 -0.00336222 0)
  (0.0907237 -0.00179431 0)
  (0.0874468 0.000435668 0)
  (0.0800006 0.00363049 0)
  (0.0653777 0.0083965 0)
  (0.0530094 0.0297975 0)
  (0.0403074 0.0472795 0)
  (0.0606852 0.06046 0)
  (-0.134963 0.0999917 0)
  (0.639591 0.395747 0)
  (-0.24706 0.175673 0)
  (-0.0367631 0.127285 0)
  (-0.0579792 0.0917294 0)
  (-0.0620952 0.0574728 0)
  (-0.0596123 0.0173046 0)
  (-0.0426693 -0.0310884 0)
  (-0.0233146 -0.0770893 0)
  (-0.00462615 -0.111227 0)
  (0.0118705 -0.130916 0)
  (0.0245268 -0.135864 0)
  (0.0344928 -0.12971 0)
  (0.0421847 -0.114839 0)
  (0.0484947 -0.0939446 0)
  (0.0546536 -0.0696934 0)
  (0.0625779 -0.0452542 0)
  (0.0749761 -0.026634 0)
  (0.0858696 -0.0255597 0)
  (0.0869298 -0.0342425 0)
  (0.0798317 -0.0346121 0)
  (0.0711303 -0.0306216 0)
  (0.0643813 -0.0256007 0)
  (0.0595895 -0.0199403 0)
  (0.0570523 -0.0136851 0)
  (0.0573546 -0.00774808 0)
  (0.0600836 -0.00489375 0)
  (0.063058 -0.00372529 0)
  (0.0658091 -0.00264851 0)
  (0.068182 -0.000625079 0)
  (0.0696969 0.00281839 0)
  (0.0691322 0.00771706 0)
  (0.065968 0.0142203 0)
  (0.0595137 0.0230617 0)
  (0.0518302 0.0394848 0)
  (0.0402417 0.0591047 0)
  (0.0683021 0.0805056 0)
  (-0.0348949 0.112528 0)
  (0.0474038 0.0269523 0)
  (-0.0691427 -0.0378808 0)
  (-0.286066 -0.0614402 0)
  (0.728946 0.441422 0)
  (-0.286274 0.194865 0)
  (-0.00690409 0.121514 0)
  (-0.00961185 0.0895882 0)
  (-0.00067545 0.0539665 0)
  (0.0199151 0.00472137 0)
  (0.0495553 -0.0509103 0)
  (0.0692534 -0.0949757 0)
  (0.0814923 -0.124444 0)
  (0.086996 -0.139373 0)
  (0.0871627 -0.141167 0)
  (0.0837747 -0.132435 0)
  (0.0783443 -0.115994 0)
  (0.0724652 -0.0947759 0)
  (0.0675857 -0.07154 0)
  (0.0649765 -0.0493295 0)
  (0.0653601 -0.0322308 0)
  (0.0655997 -0.0252677 0)
  (0.0617365 -0.0251748 0)
  (0.0539703 -0.0249149 0)
  (0.0454053 -0.0226372 0)
  (0.0384656 -0.0194417 0)
  (0.0336726 -0.0158673 0)
  (0.0312904 -0.0120766 0)
  (0.0314109 -0.00885802 0)
  (0.0335395 -0.00761084 0)
  (0.0365709 -0.00728997 0)
  (0.0400518 -0.0065452 0)
  (0.0437453 -0.00431478 0)
  (0.0474669 0.000241221 0)
  (0.0502842 0.00711274 0)
  (0.0514668 0.0159145 0)
  (0.0513568 0.0269802 0)
  (0.0515128 0.0422505 0)
  (0.0491412 0.0613537 0)
  (0.0764623 0.0861211 0)
  (0.0487526 0.105287 0)
  (0.0974761 0.0697958 0)
  (0.122234 0.0453416 0)
  (-0.138547 -0.0100881 0)
  (0.785849 0.483185 0)
  (-0.304109 0.179269 0)
  (0.024125 0.0652478 0)
  (0.0579101 0.0549416 0)
  (0.0842153 0.0288271 0)
  (0.128439 -0.025459 0)
  (0.157015 -0.0737759 0)
  (0.170705 -0.108028 0)
  (0.171565 -0.128158 0)
  (0.162305 -0.135571 0)
  (0.146106 -0.132135 0)
  (0.12608 -0.120306 0)
  (0.104924 -0.102867 0)
  (0.0848819 -0.0824836 0)
  (0.0675417 -0.0613627 0)
  (0.0538807 -0.0419445 0)
  (0.0441168 -0.0271729 0)
  (0.036605 -0.0194509 0)
  (0.029045 -0.0171905 0)
  (0.0209162 -0.0165371 0)
  (0.0133573 -0.0154321 0)
  (0.00745413 -0.0139814 0)
  (0.003533 -0.0124642 0)
  (0.00173031 -0.0110145 0)
  (0.00199902 -0.010107 0)
  (0.00383972 -0.0102504 0)
  (0.00655122 -0.0107415 0)
  (0.00986529 -0.0106134 0)
  (0.0138114 -0.00892793 0)
  (0.0185172 -0.00461055 0)
  (0.0252355 0.00323102 0)
  (0.0308991 0.0129015 0)
  (0.0364377 0.0240445 0)
  (0.0437674 0.0375689 0)
  (0.05113 0.0531495 0)
  (0.0762903 0.0732997 0)
  (0.0885829 0.0806317 0)
  (0.125365 0.0523706 0)
  (0.167946 0.0428458 0)
  (-0.0321226 0.0966976 0)
  (0.89384 0.48257 0)
  (-0.0560463 0.157623 0)
  (0.119673 -0.0236618 0)
  (0.208303 -0.0598825 0)
  (0.254428 -0.0734884 0)
  (0.279219 -0.0901709 0)
  (0.287798 -0.105531 0)
  (0.279668 -0.115192 0)
  (0.257056 -0.118031 0)
  (0.224246 -0.114274 0)
  (0.185967 -0.104783 0)
  (0.146331 -0.0908142 0)
  (0.108632 -0.0742235 0)
  (0.0751813 -0.0568095 0)
  (0.0471841 -0.039787 0)
  (0.0254163 -0.0249157 0)
  (0.00994625 -0.0145299 0)
  (-0.000774748 -0.0096072 0)
  (-0.00876321 -0.00867598 0)
  (-0.0154793 -0.00902564 0)
  (-0.0210865 -0.00935246 0)
  (-0.0253726 -0.00957581 0)
  (-0.0283033 -0.00982186 0)
  (-0.029897 -0.0102099 0)
  (-0.0302982 -0.0109342 0)
  (-0.0298962 -0.0120593 0)
  (-0.0290927 -0.0132198 0)
  (-0.0279904 -0.0139176 0)
  (-0.0264037 -0.0136366 0)
  (-0.0238811 -0.0117627 0)
  (-0.0192571 -0.00749772 0)
  (-0.00872533 -0.000187459 0)
  (-0.000406614 0.00856556 0)
  (0.0108348 0.0171734 0)
  (0.0224284 0.0248617 0)
  (0.0437349 0.0336271 0)
  (0.0623304 0.0258375 0)
  (0.0812608 -0.00558906 0)
  (0.142867 0.0448635 0)
  (-0.455407 0.222067 0)
  (1.04617 0.426943 0)
  (0.495578 0.278733 0)
  (0.514748 0.172828 0)
  (0.549827 0.0945115 0)
  (0.52969 0.0404764 0)
  (0.4818 -0.0022538 0)
  (0.426453 -0.0334135 0)
  (0.365971 -0.0522921 0)
  (0.301203 -0.0602308 0)
  (0.235555 -0.0597768 0)
  (0.173136 -0.0536447 0)
  (0.116849 -0.0438312 0)
  (0.0689594 -0.0325297 0)
  (0.029933 -0.0214255 0)
  (-0.000989524 -0.011368 0)
  (-0.0219197 -0.00466815 0)
  (-0.0338633 -0.00188577 0)
  (-0.041177 -0.00151622 0)
  (-0.0464141 -0.00247073 0)
  (-0.0509154 -0.0038317 0)
  (-0.05487 -0.00516996 0)
  (-0.0582685 -0.00645608 0)
  (-0.0611475 -0.00772349 0)
  (-0.0636154 -0.00900286 0)
  (-0.0658841 -0.0103159 0)
  (-0.0682881 -0.0115806 0)
  (-0.071174 -0.0125131 0)
  (-0.0748334 -0.0126985 0)
  (-0.0795889 -0.0116148 0)
  (-0.0859329 -0.00858963 0)
  (-0.094567 -0.00281482 0)
  (-0.105111 0.00622886 0)
  (-0.116063 0.0181512 0)
  (-0.133379 0.0332828 0)
  (-0.160746 0.0514175 0)
  (-0.200576 0.0704755 0)
  (-0.256819 0.0851187 0)
  (-0.320175 0.0923665 0)
  (-0.391741 0.0929642 0)
  (-0.660366 0.0874452 0)
  (-0.180082 -0.0206249 0)
  (0.100177 -0.0358474 0)
  (0.177006 -0.0552601 0)
  (0.163986 -0.0477036 0)
  (0.144668 -0.0345293 0)
  (0.120504 -0.0225598 0)
  (0.0884735 -0.0123447 0)
  (0.0526212 -0.00440136 0)
  (0.0177848 0.00102475 0)
  (-0.0150593 0.004568 0)
  (-0.0385411 0.00572003 0)
  (-0.0556613 0.00566537 0)
  (-0.0665921 0.00456009 0)
  (-0.0723287 0.00236623 0)
  (-0.0755968 -0.000212544 0)
  (-0.077914 -0.00285509 0)
  (-0.0800897 -0.00551327 0)
  (-0.0825507 -0.00794838 0)
  (-0.0854204 -0.00987774 0)
  (-0.0884764 -0.0113404 0)
  (-0.0916593 -0.0124106 0)
  (-0.0950864 -0.013132 0)
  (-0.0989219 -0.013525 0)
  (-0.103329 -0.0135096 0)
  (-0.108392 -0.0128434 0)
  (-0.114051 -0.0111299 0)
  (-0.120052 -0.00786334 0)
  (-0.125919 -0.00248847 0)
  (-0.130922 0.00534796 0)
  (-0.134685 0.0160004 0)
  (-0.137676 0.0304768 0)
  (-0.14048 0.0492356 0)
  (-0.144226 0.0712161 0)
  (-0.149549 0.0917824 0)
  (-0.152928 0.0994732 0)
  (-0.135122 0.0722915 0)
  (-0.081995 -0.0315416 0)
  (-0.289218 -0.225577 0)
  (0.0357538 0.198069 0)
  (0.0132207 0.0637725 0)
  (-0.0324573 0.0118652 0)
  (-0.0561074 0.0110712 0)
  (-0.0743956 0.0171665 0)
  (-0.0878562 0.021774 0)
  (-0.0968534 0.0255609 0)
  (-0.103623 0.0287094 0)
  (-0.108464 0.0306407 0)
  (-0.111657 0.0311022 0)
  (-0.112981 0.0306022 0)
  (-0.112978 0.0303697 0)
  (-0.111878 0.0305701 0)
  (-0.110272 0.0312521 0)
  (-0.108781 0.032604 0)
  (-0.107672 0.034457 0)
  (-0.107085 0.0363257 0)
  (-0.107063 0.0376389 0)
  (-0.10752 0.0378062 0)
  (-0.108467 0.0368417 0)
  (-0.109865 0.0354066 0)
  (-0.11169 0.0336679 0)
  (-0.113909 0.0317204 0)
  (-0.116468 0.0296577 0)
  (-0.119258 0.0275909 0)
  (-0.122096 0.0256357 0)
  (-0.124686 0.0238786 0)
  (-0.126475 0.0225555 0)
  (-0.126546 0.0231068 0)
  (-0.123577 0.0268398 0)
  (-0.115949 0.0349266 0)
  (-0.102502 0.0484723 0)
  (-0.0835981 0.0672624 0)
  (-0.0605239 0.0863137 0)
  (-0.036338 0.0972071 0)
  (0.0071026 0.079698 0)
  (0.144603 0.0034698 0)
  (-0.207823 -0.138377 0)
  (-0.0927977 -0.347162 0)
  (-0.447337 -0.138573 0)
  (-0.33406 0.0445017 0)
  (-0.29217 -0.0443035 0)
  (-0.251322 -0.050947 0)
  (-0.240031 -0.0436714 0)
  (-0.232031 -0.0367452 0)
  (-0.222731 -0.0324208 0)
  (-0.211097 -0.0303185 0)
  (-0.197422 -0.0305654 0)
  (-0.182702 -0.0337089 0)
  (-0.168364 -0.039745 0)
  (-0.155641 -0.0478813 0)
  (-0.145149 -0.0568148 0)
  (-0.136963 -0.0659886 0)
  (-0.130909 -0.0751209 0)
  (-0.126588 -0.0838005 0)
  (-0.123537 -0.0915806 0)
  (-0.121418 -0.0979901 0)
  (-0.120052 -0.102555 0)
  (-0.119408 -0.104943 0)
  (-0.119499 -0.10518 0)
  (-0.120254 -0.103986 0)
  (-0.121498 -0.101584 0)
  (-0.123063 -0.0981422 0)
  (-0.124762 -0.0937441 0)
  (-0.126342 -0.0883767 0)
  (-0.127449 -0.0819073 0)
  (-0.127628 -0.074053 0)
  (-0.126272 -0.064605 0)
  (-0.122249 -0.0541804 0)
  (-0.113392 -0.042605 0)
  (-0.0967417 -0.0293561 0)
  (-0.0701808 -0.0134469 0)
  (-0.0351532 0.00586495 0)
  (0.0242032 0.0307076 0)
  (0.0747612 0.0314638 0)
  (0.123382 0.00968286 0)
  (0.176822 -0.0312286 0)
  (-0.178027 -0.0995182 0)
)
;

boundaryField
{
  floor
  {
    type noSlip;
  }
  ceiling
  {
    type noSlip;
  }
  sWall
  {
    type noSlip;
  }
  nWall
  {
    type noSlip;
  }
  sideWalls
  {
    type empty;
  }
  glass1
  {
    type noSlip;
  }
  glass2
  {
    type noSlip;
  }
  sun
  {
    type noSlip;
  }
  heatsource1
  {
    type noSlip;
  }
  heatsource2
  {
    type noSlip;
  }
  Table_master
  {
    type noSlip;
  }
  Table_slave
  {
    type noSlip;
  }
  inlet
  {
    type fixedValue;
    value uniform (0.277164 -0.114805 0);
  }
  outlet
  {
    type zeroGradient;
  }
} 	// ************************************************************************* //

