/*--------------------------------*- C++ -*----------------------------------*\
  =========                 |
  \\      /  F ield         | OpenFOAM: The Open Source CFD Toolbox
   \\    /   O peration     | Website:  https://openfoam.org
    \\  /    A nd           | Version:  6
     \\/     M anipulation  |
\*---------------------------------------------------------------------------*/
FoamFile
{
    version     2.0;
    format      ascii;
    class       surfaceScalarField;
    location    "2700";
    object      phi;
}
// * * * * * * * * * * * * * * * * * * * * * * * * * * * * * * * * * * * * * //

dimensions      [1 0 -1 0 0 0 0];

internalField   nonuniform List<scalar> 
852
(
-0.00303914
0.00309898
-0.00411771
0.00107857
-0.00491926
0.000801548
-0.00553149
0.000612233
-0.00592267
0.000391179
-0.00606896
0.000146292
-0.00594924
-0.000119727
-0.00555275
-0.00039649
-0.00490515
-0.0006476
-0.0040712
-0.000833947
-0.00314142
-0.00092978
-0.00221199
-0.000929426
-0.00136798
-0.000844018
-0.000648426
-0.00071955
-0.00064636
-0.000802418
0.000806116
-0.000455802
-0.000346616
0.000221377
-0.000677179
0.000757158
-0.000535781
0.00111654
-0.000359386
0.00134221
-0.00022567
0.00146455
-0.000122336
0.00152396
-5.94135e-05
0.00155674
-3.27803e-05
0.00157633
-1.95834e-05
0.00158694
-1.06112e-05
0.00158988
-2.94266e-06
0.00158345
6.42747e-06
0.00155888
2.45746e-05
0.00149257
6.63139e-05
0.00134518
0.000147388
0.00110406
0.000241115
0.000807306
0.000296756
0.000812297
-0.00216349
0.00542323
-0.00320748
0.00212256
-0.00402785
0.00162192
-0.00462888
0.00121326
-0.00501267
0.00077497
-0.00516415
0.000297775
-0.00505964
-0.00022424
-0.0046948
-0.000761324
-0.00410752
-0.00123488
-0.003369
-0.00157246
-0.00256584
-0.00173295
-0.00177837
-0.00171689
-0.00107826
-0.00154413
-0.000542602
-0.00125521
-0.00031498
-0.000873982
4.77307e-05
-0.000362762
4.76792e-05
0.000386013
0.00043074
0.000824014
-0.000784617
0.00109314
-0.000946307
0.00132663
-0.000769271
0.00150584
-0.000538597
0.0016141
-0.00033393
0.00163162
-0.000139855
0.00163586
-6.36538e-05
0.00164104
-3.79566e-05
0.00164535
-2.38898e-05
0.00164814
-1.34107e-05
0.00164953
-4.33201e-06
0.00164853
7.42704e-06
0.00164129
3.18214e-05
0.00159715
0.00011045
0.00140952
0.000335022
0.00108924
0.000561396
0.000693314
0.000692679
0.00151828
-0.00150996
0.00717878
-0.00240751
0.00302011
-0.00313038
0.00234479
-0.00364002
0.00172289
-0.003968
0.00110296
-0.00409353
0.000423308
-0.00397293
-0.000344849
-0.00360495
-0.0011293
-0.00305127
-0.00178856
-0.00239193
-0.00223181
-0.00170695
-0.00241793
-0.00105412
-0.00236972
-0.000480723
-0.00211753
-2.35471e-05
-0.00171238
0.000279492
-0.00117702
0.000436157
-0.000519428
0.000483836
0.00160878
-0.00116673
0.00183878
-0.00101461
0.0017967
-0.000904235
0.00178833
-0.000760892
0.00181339
-0.000563665
0.00183881
-0.00035935
0.00169911
0.00163561
0.00159781
0.00157407
0.00156082
0.00155664
0.00156422
0.0015962
0.0017068
0.00139814
0.000643678
0.00103024
0.000929304
0.000583111
0.0011398
0.00212053
-0.00104995
0.00854653
-0.00175827
0.00372843
-0.00222894
0.00281547
-0.00255281
0.00204675
-0.00275093
0.00130108
-0.0027823
0.000454675
-0.00258176
-0.000545385
-0.00217927
-0.00153179
-0.00166753
-0.00230031
-0.0011219
-0.00277743
-0.000600774
-0.00293906
-0.000129143
-0.00284135
0.000279186
-0.00252586
0.000622796
-0.00205599
0.000936573
-0.0014908
0.00130879
-0.000891644
0.00216934
-0.000376716
0.00262828
-0.000448695
0.00219487
-0.000733315
0.00204969
-0.00086943
0.00192566
-0.000780212
0.00182017
-0.000655397
0.00176264
-0.000506136
0.00173462
-0.000331331
0.00187798
-0.00014351
0.00196956
-9.17379e-05
0.00204224
-7.28296e-05
0.00209558
-5.34935e-05
0.00211346
-1.80408e-05
0.00207321
4.01034e-05
0.00194955
0.000123498
0.00170978
0.000239617
0.001297
0.000412628
0.00114565
0.000795032
0.00082026
0.00125469
0.000328438
0.00163163
0.00247399
-0.000732412
0.00965808
-0.00126729
0.0042633
-0.00135068
0.00289886
-0.00138641
0.00208248
-0.00136838
0.00128305
-0.00118883
0.000275124
-0.000824206
-0.000910008
-0.000388585
-0.00196741
3.02007e-05
-0.00271909
0.000386421
-0.00313365
0.000669172
-0.00322181
0.000883905
-0.00305608
0.00105255
-0.0026945
0.00120036
-0.0022038
0.00136005
-0.00165049
0.00157836
-0.00110996
0.00189557
-0.000693921
0.00201508
-0.000568206
0.00191377
-0.000632004
0.00172186
-0.000677526
0.00156042
-0.000618764
0.00142902
-0.000524006
0.00134005
-0.000417159
0.00130853
-0.000299811
0.00136287
-0.000197852
0.0014251
-0.000153972
0.00149034
-0.000138065
0.00155353
-0.000116686
0.00160176
-6.62688e-05
0.00161337
2.8495e-05
0.00156775
0.00016912
0.00145414
0.000353227
0.00127503
0.000591735
0.00111528
0.000954776
0.000939246
0.00143073
0.000538539
0.00203233
0.000413941
0.00259859
-0.00111347
0.0015272
-0.00157669
0.00046302
-0.00152267
-0.000635736
0.0107247
-0.000995762
0.00462333
-0.000537122
0.00244022
-0.000103519
0.00164888
0.000283827
0.000895708
0.00079166
-0.000232709
0.00131597
-0.00143431
0.00169951
-0.00235096
0.00192057
-0.00294016
0.00199909
-0.00321217
0.00197704
-0.00319976
0.00188372
-0.00296276
0.00175651
-0.00256729
0.00163247
-0.00207976
0.00154258
-0.0015606
0.00150833
-0.00107571
0.00151959
-0.000705175
0.00147418
-0.000522801
0.00133084
-0.000488665
0.0011342
-0.000480885
0.000959629
-0.000444191
0.000825951
-0.000390328
0.000740895
-0.000332103
0.000714475
-0.000273391
0.000745591
-0.000228967
0.000806556
-0.000214937
0.000883375
-0.000214884
0.000969817
-0.000203127
0.00105866
-0.000155114
0.00113407
-4.69095e-05
0.00117714
0.000126052
0.00118842
0.000341942
0.0011763
0.000603854
0.00119075
0.000940325
0.00128519
0.00133629
0.00146741
0.00185011
0.00195965
0.00210634
0.00224139
0.00124547
0.00185224
0.000852166
0.000394262
-0.000663315
0.0118662
-0.000517152
0.00447717
0.000714491
0.00120858
0.00163728
0.000726085
0.00249114
4.18548e-05
0.0032802
-0.00102177
0.00376457
-0.00191868
0.00394216
-0.00252856
0.00385796
-0.00285595
0.00357558
-0.00292978
0.00316648
-0.00279066
0.0026942
-0.00249048
0.00221642
-0.00208951
0.00178042
-0.00164377
0.00141546
-0.00119563
0.00113503
-0.000795281
0.000931102
-0.000501244
0.000755441
-0.000347139
0.000570095
-0.000303319
0.000386103
-0.000296893
0.000231053
-0.000289142
0.000117719
-0.000276994
5.03751e-05
-0.000264759
3.23298e-05
-0.000255346
5.85546e-05
-0.000255192
0.000112746
-0.000269129
0.000183975
-0.000286113
0.00027065
-0.000289803
0.000376948
-0.000261412
0.000507537
-0.000177498
0.000642784
-9.19599e-06
0.000772967
0.000211759
0.000915078
0.000461743
0.00110842
0.000746987
0.00140639
0.00103832
0.00188359
0.00137291
0.00262294
0.00136699
0.0032209
0.000647508
0.00328441
0.000788655
0.00374792
0.00276903
0.0096327
0.00354846
0.00369773
0.00416961
0.000587424
0.00517168
-0.000275986
0.00609537
-0.000881831
0.00655849
-0.00148489
0.0065787
-0.00193889
0.0062277
-0.00217755
0.00559492
-0.00222318
0.00478016
-0.00211502
0.00388229
-0.00189279
0.00298411
-0.0015923
0.00215257
-0.00125796
0.00143482
-0.000926027
0.000850787
-0.000611597
0.000409465
-0.000353959
0.000102063
-0.000193842
-0.000114717
-0.00013036
-0.000286516
-0.00013152
-0.000430158
-0.000153251
-0.000544862
-0.000174438
-0.00062855
-0.000193306
-0.000681497
-0.000211812
-0.000705084
-0.00023176
-0.00070461
-0.000255665
-0.000690251
-0.000283488
-0.000667806
-0.000308558
-0.000635995
-0.000321614
-0.000585064
-0.000312342
-0.000493937
-0.000268626
-0.000331303
-0.00017183
-0.000127519
7.97478e-06
0.000101033
0.00023319
0.000384364
0.000463656
0.000728623
0.000694059
0.00118452
0.000917011
0.00166511
0.000886406
0.00179859
0.000514031
0.00096587
0.00162137
0.00500733
0.010226
0.0139199
0.0129834
0.00152386
0.01236
0.000347413
0.0116068
-0.000128621
0.0105658
-0.000443849
0.0092559
-0.000629009
0.00778964
-0.000711285
0.00626826
-0.00070181
0.0047792
-0.000625955
0.00340153
-0.00051512
0.00218559
-0.000376365
0.00116521
-0.000237577
0.000349908
-0.000110729
-0.000251791
-9.89865e-06
-0.000640886
3.51365e-05
-0.000870048
3.53204e-05
-0.00101545
1.50444e-05
-0.00112866
-1.83089e-05
-0.00122664
-5.52723e-05
-0.00131163
-8.94514e-05
-0.00138411
-0.000120825
-0.00144624
-0.000149684
-0.00150155
-0.000176445
-0.0015559
-0.000201314
-0.00161736
-0.000222035
-0.00169335
-0.000232568
-0.00179137
-0.000223592
-0.00192071
-0.000182995
-0.00209364
-9.56976e-05
-0.00231752
5.20464e-05
-0.00257753
0.000267987
-0.00291538
0.000571043
-0.00343237
0.000980645
-0.00422649
0.00148818
-0.00535277
0.00204329
-0.00691872
0.00245236
-0.00877344
0.00236875
-0.00814193
0.000989862
-0.0028085
0.00437462
0.00338423
0.00335936
0.00136267
0.00365227
-0.000421532
0.0035922
-0.000383779
0.00313571
-0.000172514
0.00245008
-2.56528e-05
0.00164813
0.000100134
0.000824077
0.000198101
5.37252e-05
0.000255232
-0.000592555
0.000269915
-0.00107628
0.00024615
-0.00140447
0.000217461
-0.00159804
0.000183671
-0.00170547
0.000142569
-0.00177273
0.000102571
-0.00182496
6.72777e-05
-0.00187868
3.54139e-05
-0.00194031
6.35902e-06
-0.00200802
-2.17431e-05
-0.00207914
-4.97065e-05
-0.00215544
-7.33855e-05
-0.00223986
-9.20265e-05
-0.00233594
-0.000105226
-0.00244651
-0.000111468
-0.00257184
-0.000107236
-0.00270858
-8.68544e-05
-0.002848
-4.35761e-05
-0.00297508
3.13776e-05
-0.00308132
0.000158286
-0.00317107
0.00035774
-0.00325511
0.000655085
-0.00334532
0.00107085
-0.00344579
0.00158865
-0.00349736
0.00209486
-0.00340806
0.00236306
-0.00297806
0.00193876
-0.00164939
-0.000338813
-0.00437308
-0.000799596
0.00426803
-0.000350402
0.00091348
-0.00102292
0.000250984
-0.00153778
0.000131087
-0.00188669
0.000176396
-0.0021459
0.000233555
-0.00232997
0.000284205
-0.00245784
0.000325966
-0.0025408
0.000338195
-0.0025846
0.000313715
-0.0026014
0.000262951
-0.00259109
0.000207146
-0.0025618
0.000154379
-0.00252781
0.000108582
-0.00249861
7.33745e-05
-0.00247897
4.76375e-05
-0.00247155
2.79958e-05
-0.00247693
1.17342e-05
-0.0024933
-5.36925e-06
-0.00252085
-2.21564e-05
-0.00255881
-3.54321e-05
-0.0026063
-4.45298e-05
-0.00266224
-4.92915e-05
-0.00272472
-4.89896e-05
-0.00279017
-4.1778e-05
-0.00285242
-2.46092e-05
-0.00290267
6.67321e-06
-0.00292589
5.4595e-05
-0.00289871
0.000131111
-0.00279404
0.000253067
-0.00257629
0.000437344
-0.00221675
0.000711312
-0.00171855
0.00109044
-0.00106539
0.0014417
-3.57704e-05
0.00133344
0.00127949
0.000623494
0.00159323
-0.000652554
-0.0026865
-0.00789888
-0.0111578
-0.00683442
-0.00589271
-0.00562243
-0.00547581
-0.00528623
-0.00504114
-0.00474654
-0.00441093
-0.0040635
-0.00374063
-0.00346838
-0.00325167
-0.00308742
-0.00296869
-0.00288489
-0.00282659
-0.00278773
-0.00276501
-0.00275932
-0.00277042
-0.00279485
-0.00282848
-0.00286702
-0.00290542
-0.00293682
-0.00295129
-0.00293475
-0.0028706
-0.00273026
-0.00246833
-0.00202251
-0.00130313
-0.000205055
0.00124364
0.00258376
0.00321391
0.00256827
)
;

boundaryField
{
    floor
    {
        type            calculated;
        value           nonuniform List<scalar> 
29
(
0
0
0
0
0
0
0
0
0
0
0
0
0
0
0
0
0
0
0
0
-4.99076e-06
-1.26721e-05
-1.91379e-05
-2.50182e-05
-2.06579e-06
-3.69762e-06
-1.06373e-05
-1.13154e-05
-1.02434e-05
)
;
    }
    ceiling
    {
        type            calculated;
        value           nonuniform List<scalar> 
43
(
-5.93169e-05
-5.70885e-05
-5.53011e-05
-2.82324e-05
-1.92954e-05
-1.55286e-05
-1.31855e-05
-1.15359e-05
-1.03925e-05
-9.64293e-06
-9.23955e-06
-9.15122e-06
-9.29999e-06
-9.56643e-06
-9.86624e-06
-1.01566e-05
-1.04257e-05
-1.06624e-05
-1.08553e-05
-1.0991e-05
-1.10571e-05
-1.10553e-05
-1.10003e-05
-1.09002e-05
-1.07585e-05
-1.05867e-05
-1.03796e-05
-1.0138e-05
-9.8646e-06
-9.56e-06
-9.22418e-06
-8.86259e-06
-8.47838e-06
-8.07061e-06
-7.63102e-06
-6.99093e-06
-6.68257e-06
-6.65479e-06
-6.91822e-06
-6.56996e-06
6.27401e-06
3.85117e-06
-8.42026e-05
)
;
    }
    sWall
    {
        type            calculated;
        value           uniform -0.000279351;
    }
    nWall
    {
        type            calculated;
        value           nonuniform List<scalar> 6(-5.42234e-05 -6.46915e-05 -6.92405e-05 -8.4814e-05 -9.33471e-05 -0.000111659);
    }
    sideWalls
    {
        type            empty;
        value           nonuniform 0();
    }
    glass1
    {
        type            calculated;
        value           nonuniform List<scalar> 9(-5.98352e-05 -0.000160757 -0.00024559 -0.000317804 -0.000379143 -0.000430913 -0.000478183 -0.000535497 -0.000599562);
    }
    glass2
    {
        type            calculated;
        value           nonuniform List<scalar> 2(-0.000293547 -0.000326095);
    }
    sun
    {
        type            calculated;
        value           uniform 0;
    }
    heatsource1
    {
        type            calculated;
        value           nonuniform List<scalar> 3(2.05042e-07 2.04937e-07 2.04956e-07);
    }
    heatsource2
    {
        type            calculated;
        value           nonuniform List<scalar> 4(5.14207e-08 5.15301e-08 0 0);
    }
    Table_master
    {
        type            calculated;
        value           nonuniform List<scalar> 9(-1.53782e-07 -1.53875e-07 -1.53908e-07 -1.5393e-07 -1.53945e-07 -1.53956e-07 -1.5396e-07 -1.53953e-07 -1.53918e-07);
    }
    Table_slave
    {
        type            calculated;
        value           nonuniform List<scalar> 9(1.5364e-07 1.53662e-07 1.53638e-07 1.5362e-07 1.53614e-07 1.53618e-07 1.53637e-07 1.53686e-07 1.53778e-07);
    }
    inlet
    {
        type            calculated;
        value           uniform -0.006235;
    }
    outlet
    {
        type            calculated;
        value           nonuniform List<scalar> 2(0.00823755 0.00331596);
    }
}


// ************************************************************************* //
