// -*- C++ -*-
// File generated by PyFoam - sorry for the ugliness

FoamFile
{
 version 2.0;
 format ascii;
 class volVectorField;
 location "2700";
 object U;
}

dimensions [ 0 1 -1 0 0 0 0 ];

internalField nonuniform List<vector> 459
(
  (0.0335091 0.0881931 0)
  (-0.171594 0.0264187 0)
  (-0.196685 0.017833 0)
  (-0.227361 0.0118757 0)
  (-0.24897 0.00535306 0)
  (-0.260541 -0.00147452 0)
  (-0.260617 -0.0086149 0)
  (-0.248531 -0.0160284 0)
  (-0.225216 -0.0229721 0)
  (-0.192716 -0.028346 0)
  (-0.154474 -0.0313155 0)
  (-0.114271 -0.0315886 0)
  (-0.0756835 -0.0295071 0)
  (-0.0437769 -0.0264856 0)
  (-0.0336674 -0.0243143 0)
  (-0.00276133 0.0086483 0)
  (-0.0278732 -0.0196855 0)
  (-0.00211705 -0.0296289 0)
  (0.0222399 -0.0220831 0)
  (0.039681 -0.0149224 0)
  (0.0528937 -0.00956832 0)
  (0.0608373 -0.00568518 0)
  (0.064811 -0.00365156 0)
  (0.06657 -0.00278378 0)
  (0.067449 -0.0023673 0)
  (0.0679901 -0.00209846 0)
  (0.0682685 -0.00187624 0)
  (0.0682163 -0.00161148 0)
  (0.0676177 -0.00112196 0)
  (0.0658796 -8.92577e-06 0)
  (0.0617429 0.00227944 0)
  (0.0538507 0.00467036 0)
  (0.046674 0.00662212 0)
  (-0.0143188 0.0229773 0)
  (0.209983 0.180222 0)
  (-0.158764 0.0695739 0)
  (-0.157294 0.0528864 0)
  (-0.188684 0.0403204 0)
  (-0.20988 0.0262213 0)
  (-0.221537 0.0106483 0)
  (-0.222151 -0.0064936 0)
  (-0.211045 -0.0243077 0)
  (-0.189725 -0.0403451 0)
  (-0.160558 -0.0521721 0)
  (-0.127018 -0.0582244 0)
  (-0.0925629 -0.0582303 0)
  (-0.0603363 -0.052789 0)
  (-0.0337571 -0.0434463 0)
  (-0.0171007 -0.032101 0)
  (-0.00346414 -0.0141285 0)
  (-0.00391989 0.017085 0)
  (0.0729033 0.0363829 0)
  (0.0316421 -0.0207719 0)
  (0.0393616 -0.0340621 0)
  (0.0514608 -0.0294023 0)
  (0.0609532 -0.0205369 0)
  (0.0674342 -0.0122792 0)
  (0.0701179 -0.00507993 0)
  (0.0705359 -0.00107888 0)
  (0.0704264 0.000593018 0)
  (0.0705041 0.00134129 0)
  (0.0706835 0.00178945 0)
  (0.070813 0.00216607 0)
  (0.0708428 0.00264689 0)
  (0.070716 0.00360146 0)
  (0.0698648 0.0059894 0)
  (0.0657022 0.0126255 0)
  (0.0552563 0.0181229 0)
  (0.0505946 0.0217611 0)
  (-0.0555103 0.0495069 0)
  (0.371259 0.269184 0)
  (-0.173891 0.110254 0)
  (-0.117617 0.0850941 0)
  (-0.14749 0.0628954 0)
  (-0.165977 0.0397909 0)
  (-0.176277 0.0146313 0)
  (-0.175875 -0.0130036 0)
  (-0.163934 -0.0411816 0)
  (-0.143132 -0.0655832 0)
  (-0.116438 -0.082556 0)
  (-0.0873674 -0.0902186 0)
  (-0.0586112 -0.0888808 0)
  (-0.0322187 -0.0796465 0)
  (-0.0102682 -0.0643688 0)
  (0.00617546 -0.0435972 0)
  (0.0175042 -0.0180618 0)
  (0.023367 0.0187302 0)
  (0.120683 -0.0376305 0)
  (0.0793486 -0.0449572 0)
  (0.0735816 -0.0427314 0)
  (0.0756631 -0.0351618 0)
  (0.0772907 -0.0256092 0)
  (0.0784164 -0.0173588 0)
  (0.0768698 -0.0137903 0)
  (0.0722939 -0.00964132 0)
  (0.0690863 -0.00738511 0)
  (0.0676809 -0.00608946 0)
  (0.0671103 -0.0052613 0)
  (0.0668487 -0.00468061 0)
  (0.0669142 -0.00413762 0)
  (0.0678076 -0.00324314 0)
  (0.0708098 8.24212e-05 0)
  (0.0684525 0.0182046 0)
  (0.0537464 0.0307473 0)
  (0.0571702 0.0389189 0)
  (-0.0923454 0.0766414 0)
  (0.516114 0.340503 0)
  (-0.206876 0.146177 0)
  (-0.0764598 0.112141 0)
  (-0.103747 0.0816357 0)
  (-0.11647 0.0517003 0)
  (-0.122477 0.0183549 0)
  (-0.117369 -0.0196792 0)
  (-0.102323 -0.0581642 0)
  (-0.0817054 -0.0895936 0)
  (-0.058603 -0.109938 0)
  (-0.036027 -0.117775 0)
  (-0.0151271 -0.114668 0)
  (0.00372463 -0.101926 0)
  (0.019414 -0.0824152 0)
  (0.0330457 -0.0583588 0)
  (0.0479664 -0.0311192 0)
  (0.0706401 -0.00109621 0)
  (0.103172 0.0130851 0)
  (0.109131 -0.0292879 0)
  (0.0934683 -0.0389435 0)
  (0.0840684 -0.0363849 0)
  (0.079471 -0.0307512 0)
  (0.0763634 -0.0233522 0)
  (0.0747716 -0.0143334 0)
  (0.0768342 -0.00852873 0)
  (0.0820159 -0.00655244 0)
  (0.086304 -0.0053989 0)
  (0.089128 -0.00448894 0)
  (0.0907248 -0.00339049 0)
  (0.0904546 -0.00182518 0)
  (0.0872459 0.000414525 0)
  (0.0798419 0.00362474 0)
  (0.0652217 0.00841386 0)
  (0.0528758 0.0298467 0)
  (0.0401681 0.0472817 0)
  (0.0606777 0.0603603 0)
  (-0.135475 0.0998427 0)
  (0.64026 0.395621 0)
  (-0.247412 0.175418 0)
  (-0.0367526 0.127108 0)
  (-0.0580366 0.0917049 0)
  (-0.0621865 0.0576625 0)
  (-0.0598611 0.0177857 0)
  (-0.0431951 -0.0303448 0)
  (-0.0239452 -0.0763536 0)
  (-0.00533183 -0.110606 0)
  (0.0112176 -0.130591 0)
  (0.0238869 -0.135741 0)
  (0.0338941 -0.129762 0)
  (0.0416228 -0.115034 0)
  (0.0479599 -0.0942302 0)
  (0.0541221 -0.0700322 0)
  (0.0620102 -0.0456121 0)
  (0.0743251 -0.0269578 0)
  (0.0851534 -0.0257136 0)
  (0.0861759 -0.0343204 0)
  (0.0790429 -0.0345963 0)
  (0.0703475 -0.0305389 0)
  (0.0636423 -0.0255006 0)
  (0.0589038 -0.0198625 0)
  (0.05642 -0.013653 0)
  (0.0567691 -0.00777877 0)
  (0.0595475 -0.00497449 0)
  (0.0625776 -0.00382955 0)
  (0.0653916 -0.00276806 0)
  (0.0678332 -0.00076112 0)
  (0.0694316 0.00269332 0)
  (0.0689414 0.00762743 0)
  (0.0658336 0.0141722 0)
  (0.0594139 0.0230582 0)
  (0.0517488 0.0395083 0)
  (0.0401554 0.0590953 0)
  (0.0682882 0.0804081 0)
  (-0.0351292 0.112291 0)
  (0.0475323 0.0269134 0)
  (-0.0689587 -0.0377226 0)
  (-0.28607 -0.0613042 0)
  (0.729531 0.441333 0)
  (-0.286618 0.194666 0)
  (-0.00696219 0.121356 0)
  (-0.009771 0.0896093 0)
  (-0.00092345 0.0543464 0)
  (0.0190993 0.00550323 0)
  (0.0488439 -0.0500498 0)
  (0.0685399 -0.0942166 0)
  (0.0808266 -0.123888 0)
  (0.0863982 -0.139063 0)
  (0.0866148 -0.141078 0)
  (0.0832739 -0.132525 0)
  (0.0778769 -0.116218 0)
  (0.0720095 -0.0950733 0)
  (0.0671178 -0.0718594 0)
  (0.0644661 -0.04963 0)
  (0.0647773 -0.0324783 0)
  (0.0649521 -0.0254122 0)
  (0.0610574 -0.0252433 0)
  (0.0532861 -0.024917 0)
  (0.0447404 -0.0225932 0)
  (0.0378366 -0.0193863 0)
  (0.0330827 -0.0158352 0)
  (0.0307417 -0.0120931 0)
  (0.0309047 -0.00893443 0)
  (0.0330723 -0.00773563 0)
  (0.0361399 -0.00743638 0)
  (0.0396575 -0.00671138 0)
  (0.0433956 -0.00450421 0)
  (0.0471536 4.54159e-05 0)
  (0.0500684 0.00695957 0)
  (0.0513299 0.0158167 0)
  (0.0512784 0.0269403 0)
  (0.0514746 0.0422485 0)
  (0.0491265 0.0613291 0)
  (0.0764529 0.0860185 0)
  (0.0487275 0.105023 0)
  (0.097525 0.0696155 0)
  (0.122207 0.0452696 0)
  (-0.138283 -0.00990335 0)
  (0.786252 0.483137 0)
  (-0.304424 0.179139 0)
  (0.0239626 0.0651767 0)
  (0.0576325 0.0551325 0)
  (0.0837697 0.0294619 0)
  (0.12765 -0.0244723 0)
  (0.156253 -0.0728639 0)
  (0.170047 -0.107312 0)
  (0.171039 -0.12768 0)
  (0.161902 -0.135336 0)
  (0.145791 -0.132109 0)
  (0.125817 -0.12044 0)
  (0.104679 -0.103107 0)
  (0.0846221 -0.0827711 0)
  (0.0672437 -0.0616467 0)
  (0.0535292 -0.0421877 0)
  (0.0437062 -0.0273579 0)
  (0.0361533 -0.0195648 0)
  (0.028583 -0.017244 0)
  (0.0204574 -0.0165414 0)
  (0.0129087 -0.0154048 0)
  (0.00702121 -0.0139493 0)
  (0.00311972 -0.0124619 0)
  (0.00134062 -0.0110692 0)
  (0.00163219 -0.010221 0)
  (0.00348735 -0.010404 0)
  (0.0062076 -0.0109106 0)
  (0.00952891 -0.0108064 0)
  (0.0134879 -0.00915054 0)
  (0.0182128 -0.00486234 0)
  (0.0249238 0.00297956 0)
  (0.0307215 0.0127144 0)
  (0.0363329 0.0239319 0)
  (0.043718 0.0375123 0)
  (0.051125 0.0530899 0)
  (0.0762839 0.0731715 0)
  (0.0886082 0.0803683 0)
  (0.12541 0.0521235 0)
  (0.16797 0.0427424 0)
  (-0.0318772 0.0967211 0)
  (0.89422 0.482636 0)
  (-0.0564188 0.157575 0)
  (0.119444 -0.0235303 0)
  (0.207561 -0.0594758 0)
  (0.253302 -0.0727811 0)
  (0.278313 -0.0894805 0)
  (0.287176 -0.104947 0)
  (0.279322 -0.114761 0)
  (0.256937 -0.117771 0)
  (0.224287 -0.114184 0)
  (0.186095 -0.104835 0)
  (0.146479 -0.0909743 0)
  (0.108749 -0.0744478 0)
  (0.0752332 -0.0570531 0)
  (0.0471617 -0.0400161 0)
  (0.0253326 -0.0251119 0)
  (0.00982637 -0.0146885 0)
  (-0.000916055 -0.0097105 0)
  (-0.00891358 -0.00872647 0)
  (-0.0156427 -0.00903438 0)
  (-0.0212561 -0.00933859 0)
  (-0.0255382 -0.00956674 0)
  (-0.0284563 -0.00984804 0)
  (-0.0300389 -0.0102877 0)
  (-0.0304394 -0.0110574 0)
  (-0.0300463 -0.012207 0)
  (-0.0292553 -0.0133789 0)
  (-0.0281674 -0.0140974 0)
  (-0.0265963 -0.0138416 0)
  (-0.0240947 -0.0120006 0)
  (-0.0195065 -0.00776344 0)
  (-0.00894635 -0.000454567 0)
  (-0.000612938 0.00838028 0)
  (0.0106759 0.0170783 0)
  (0.0223008 0.0247846 0)
  (0.0435894 0.0335116 0)
  (0.06212 0.0256609 0)
  (0.0809318 -0.00565419 0)
  (0.142506 0.0450816 0)
  (-0.456184 0.222331 0)
  (1.04652 0.427035 0)
  (0.495754 0.278789 0)
  (0.514845 0.173035 0)
  (0.549885 0.0950394 0)
  (0.529916 0.0412334 0)
  (0.482197 -0.00147671 0)
  (0.427031 -0.0327612 0)
  (0.3667 -0.0518341 0)
  (0.302024 -0.0599711 0)
  (0.236399 -0.0596791 0)
  (0.173927 -0.0536591 0)
  (0.117537 -0.0439212 0)
  (0.0695106 -0.0326628 0)
  (0.0303529 -0.0215882 0)
  (-0.000632139 -0.0115717 0)
  (-0.0216039 -0.00485385 0)
  (-0.0335896 -0.00202473 0)
  (-0.0409522 -0.00160888 0)
  (-0.0462273 -0.00253134 0)
  (-0.0507403 -0.00387092 0)
  (-0.0546868 -0.00520312 0)
  (-0.0580646 -0.00650297 0)
  (-0.0609229 -0.00780179 0)
  (-0.0633813 -0.00911572 0)
  (-0.0656566 -0.010455 0)
  (-0.0680783 -0.0117295 0)
  (-0.0709881 -0.0126674 0)
  (-0.0746782 -0.0128663 0)
  (-0.0794733 -0.0118019 0)
  (-0.0858684 -0.00879853 0)
  (-0.0945697 -0.00302526 0)
  (-0.105278 0.00606366 0)
  (-0.116279 0.0180392 0)
  (-0.133642 0.0332216 0)
  (-0.161077 0.0513778 0)
  (-0.201008 0.0704163 0)
  (-0.257359 0.084995 0)
  (-0.320749 0.0921222 0)
  (-0.392249 0.0925566 0)
  (-0.660688 0.0868468 0)
  (-0.18103 -0.0201986 0)
  (0.100516 -0.0349344 0)
  (0.177222 -0.0546765 0)
  (0.164335 -0.047342 0)
  (0.145211 -0.0343135 0)
  (0.121218 -0.0224432 0)
  (0.0892825 -0.0122876 0)
  (0.0535035 -0.00438139 0)
  (0.018679 0.00102546 0)
  (-0.0141117 0.00455506 0)
  (-0.0377231 0.00572954 0)
  (-0.054892 0.00566931 0)
  (-0.0658917 0.00456998 0)
  (-0.071726 0.00241603 0)
  (-0.0750452 -0.000125495 0)
  (-0.0773899 -0.00273942 0)
  (-0.0795631 -0.00537851 0)
  (-0.0819971 -0.00779831 0)
  (-0.0848183 -0.00972019 0)
  (-0.0878179 -0.0112012 0)
  (-0.0909617 -0.0123083 0)
  (-0.0943728 -0.0130754 0)
  (-0.098216 -0.0135147 0)
  (-0.102652 -0.0135391 0)
  (-0.107765 -0.0129097 0)
  (-0.113492 -0.0112315 0)
  (-0.119579 -0.0079956 0)
  (-0.125542 -0.00264079 0)
  (-0.130647 0.00520512 0)
  (-0.134477 0.0158752 0)
  (-0.137516 0.0303904 0)
  (-0.140352 0.0492041 0)
  (-0.144128 0.0712231 0)
  (-0.149485 0.0917887 0)
  (-0.152893 0.0994542 0)
  (-0.135021 0.072275 0)
  (-0.081357 -0.0315619 0)
  (-0.289028 -0.225897 0)
  (0.0346646 0.19849 0)
  (0.0135272 0.0642595 0)
  (-0.0322713 0.0121755 0)
  (-0.0556155 0.0112771 0)
  (-0.0736758 0.0172913 0)
  (-0.0869827 0.0218317 0)
  (-0.0958695 0.0255609 0)
  (-0.102622 0.0286729 0)
  (-0.107463 0.0305713 0)
  (-0.110665 0.0310015 0)
  (-0.112028 0.030464 0)
  (-0.112068 0.0301649 0)
  (-0.111024 0.0303118 0)
  (-0.10947 0.0309711 0)
  (-0.108012 0.0323211 0)
  (-0.10692 0.0341874 0)
  (-0.106337 0.0360749 0)
  (-0.106313 0.0374052 0)
  (-0.106764 0.0375756 0)
  (-0.107707 0.0366674 0)
  (-0.109111 0.0352923 0)
  (-0.110953 0.0336194 0)
  (-0.113196 0.0317471 0)
  (-0.115781 0.0297606 0)
  (-0.1186 0.0277599 0)
  (-0.121471 0.0258496 0)
  (-0.1241 0.0241079 0)
  (-0.125936 0.0227595 0)
  (-0.126059 0.023261 0)
  (-0.123136 0.0269462 0)
  (-0.115544 0.0350039 0)
  (-0.10212 0.0485431 0)
  (-0.0832451 0.0673337 0)
  (-0.0602068 0.0863439 0)
  (-0.0361012 0.097164 0)
  (0.00747971 0.0795377 0)
  (0.144418 0.00332894 0)
  (-0.207522 -0.138669 0)
  (-0.0932165 -0.347406 0)
  (-0.447562 -0.138562 0)
  (-0.334144 0.0447544 0)
  (-0.29172 -0.0445247 0)
  (-0.250744 -0.0513562 0)
  (-0.239321 -0.0440929 0)
  (-0.231264 -0.0371301 0)
  (-0.221941 -0.0327544 0)
  (-0.210296 -0.0305891 0)
  (-0.196613 -0.0307595 0)
  (-0.181878 -0.0338187 0)
  (-0.167514 -0.0397655 0)
  (-0.15476 -0.0478291 0)
  (-0.144243 -0.056733 0)
  (-0.136048 -0.0659158 0)
  (-0.129996 -0.0750922 0)
  (-0.125684 -0.083854 0)
  (-0.122651 -0.0917371 0)
  (-0.120558 -0.0982597 0)
  (-0.119225 -0.102931 0)
  (-0.118625 -0.105402 0)
  (-0.118766 -0.105751 0)
  (-0.119571 -0.104661 0)
  (-0.120865 -0.102356 0)
  (-0.122478 -0.0989978 0)
  (-0.124216 -0.0946739 0)
  (-0.125825 -0.0893468 0)
  (-0.12695 -0.0828853 0)
  (-0.127142 -0.0750164 0)
  (-0.1258 -0.0655158 0)
  (-0.121798 -0.0550137 0)
  (-0.112963 -0.0433549 0)
  (-0.0963237 -0.0300258 0)
  (-0.0697689 -0.0140415 0)
  (-0.0348048 0.005342 0)
  (0.0247495 0.0302928 0)
  (0.0751761 0.030915 0)
  (0.123779 0.00905883 0)
  (0.176901 -0.0318915 0)
  (-0.177173 -0.100222 0)
)
;

boundaryField
{
  floor
  {
    type noSlip;
  }
  ceiling
  {
    type noSlip;
  }
  sWall
  {
    type noSlip;
  }
  nWall
  {
    type noSlip;
  }
  sideWalls
  {
    type empty;
  }
  glass1
  {
    type noSlip;
  }
  glass2
  {
    type noSlip;
  }
  sun
  {
    type noSlip;
  }
  heatsource1
  {
    type noSlip;
  }
  heatsource2
  {
    type noSlip;
  }
  Table_master
  {
    type noSlip;
  }
  Table_slave
  {
    type noSlip;
  }
  inlet
  {
    type fixedValue;
    value uniform (0.277164 -0.114805 0);
  }
  outlet
  {
    type zeroGradient;
  }
} 	// ************************************************************************* //

