/*--------------------------------*- C++ -*----------------------------------*\
  =========                 |
  \\      /  F ield         | OpenFOAM: The Open Source CFD Toolbox
   \\    /   O peration     | Website:  https://openfoam.org
    \\  /    A nd           | Version:  6
     \\/     M anipulation  |
\*---------------------------------------------------------------------------*/
FoamFile
{
    version     2.0;
    format      ascii;
    class       volScalarField;
    location    "300";
    object      nut;
}
// * * * * * * * * * * * * * * * * * * * * * * * * * * * * * * * * * * * * * //

dimensions      [0 2 -1 0 0 0 0];

internalField   nonuniform List<scalar> 
459
(
0.00100363
0.00108574
0.00109624
0.00114597
0.00119167
0.00123374
0.00127385
0.00131414
0.00134986
0.00137315
0.00137867
0.00136162
0.00132041
0.00126048
0.00119352
0.0004549
0.000552138
0.00058805
0.000566754
0.000540209
0.000512568
0.000483501
0.000455964
0.000431006
0.000408627
0.000388635
0.000370778
0.000354651
0.000339867
0.000325971
0.000312302
0.00029785
0.000291897
0.000271786
0.00140578
0.00316723
0.00294781
0.00342862
0.00386535
0.00431384
0.00474056
0.00509098
0.00538096
0.00563611
0.00581599
0.00586283
0.00568794
0.0051055
0.00363199
0.00120436
0.000798188
0.000586445
0.000949851
0.0011919
0.0013564
0.00143005
0.0014192
0.00121739
0.00108727
0.000988609
0.000909587
0.000843239
0.000784237
0.000730706
0.000680377
0.000632302
0.000591602
0.000549741
0.000670572
0.000377826
0.00174702
0.0043537
0.00353553
0.00463216
0.00510899
0.00545291
0.00571558
0.00592369
0.006125
0.00634953
0.00657221
0.00675144
0.00683183
0.00673289
0.00631474
0.00511262
0.00116799
0.00100112
0.00132893
0.00156723
0.00175727
0.00187768
0.00182155
0.000666328
0.000597666
0.000542
0.000496668
0.000459421
0.000428521
0.000402695
0.000381105
0.000363378
0.000391507
0.00044286
0.000757863
0.000448944
0.00208103
0.00576228
0.00348152
0.00491536
0.0054279
0.00558458
0.00563745
0.00569499
0.00581506
0.00601658
0.00627016
0.00653879
0.00677482
0.00690537
0.00687933
0.00647771
0.00502402
0.00131642
0.00165661
0.00204271
0.00233296
0.00252758
0.00264318
0.00248729
0.000739978
0.000689215
0.000656879
0.000634095
0.000613893
0.00059122
0.000568882
0.000544271
0.00051393
0.000482451
0.000479158
0.000906149
0.000502342
0.0024229
0.00760616
0.00392466
0.00462056
0.00539734
0.00550207
0.00541379
0.00535222
0.00544363
0.00565208
0.00592945
0.00624543
0.00654601
0.00672431
0.00673298
0.00650806
0.00591952
0.00477298
0.00425539
0.00396912
0.00378406
0.00367624
0.00362035
0.00353044
0.00311615
0.00295834
0.002882
0.00281572
0.00272548
0.00258694
0.00233102
0.00199673
0.00161373
0.00121567
0.000886749
0.000886327
0.000652235
0.000638698
0.000761464
0.000849426
0.00278317
0.00960378
0.0057491
0.00445222
0.00497573
0.00530091
0.00538228
0.00519179
0.00530813
0.00551379
0.00579316
0.00612252
0.00643124
0.00662311
0.00661209
0.00636108
0.00590938
0.00536757
0.00495861
0.00464498
0.00439018
0.00419969
0.00405716
0.00393751
0.00380581
0.00371479
0.003637
0.00355044
0.00344485
0.00331477
0.0031128
0.00280664
0.00239524
0.0019021
0.00143025
0.00101606
0.000836478
0.000761011
0.00112434
0.000887325
0.00311925
0.0110688
0.00856728
0.00606078
0.00534657
0.00529619
0.00543378
0.00541763
0.00544813
0.00558241
0.00584009
0.00617709
0.00649951
0.0066909
0.0066478
0.00633341
0.0058337
0.00534816
0.00500447
0.00472187
0.00443042
0.00414918
0.00392048
0.00377066
0.00368037
0.00362307
0.00356765
0.00350245
0.00342737
0.00334836
0.00326724
0.00307444
0.0027355
0.00229238
0.00185406
0.00142225
0.00117148
0.00112904
0.0012074
0.000998978
0.00318762
0.0100991
0.00887314
0.00803904
0.00724041
0.00667076
0.0062314
0.00583638
0.0056658
0.00575495
0.00603992
0.00640879
0.00673475
0.00689087
0.00677118
0.00634794
0.00574492
0.00522322
0.00482587
0.00439295
0.00397865
0.00366413
0.0034665
0.003357
0.00329641
0.00325411
0.00321411
0.00317577
0.00314696
0.00314005
0.00316809
0.00320347
0.00297512
0.00264738
0.00235833
0.00223198
0.00240401
0.00298648
0.00387117
0.00157696
0.00310639
0.00369808
0.00418571
0.00440204
0.00456114
0.00462491
0.0047146
0.00495307
0.00537213
0.00589941
0.00642825
0.00686218
0.007124
0.00713843
0.00683592
0.00623624
0.00554213
0.00486826
0.0042313
0.00369424
0.00332651
0.00310603
0.00297602
0.00289233
0.00282838
0.00276943
0.00270876
0.0026445
0.00257607
0.00250216
0.00242095
0.00233169
0.00225523
0.00220675
0.00221173
0.00226008
0.00228048
0.00220357
0.00205704
0.00145639
0.00182807
0.0037784
0.00479277
0.00546771
0.00613405
0.00674418
0.00721266
0.00750245
0.00761906
0.00757901
0.00740067
0.00707433
0.0065738
0.00583662
0.00500595
0.0041795
0.00352029
0.00310535
0.00286462
0.00271474
0.00260753
0.00252101
0.00244573
0.0023775
0.00231477
0.002258
0.00220965
0.00217452
0.00215968
0.00217136
0.00219551
0.002231
0.00227009
0.00228331
0.00222275
0.00206725
0.00182991
0.00117804
0.00223044
0.0050785
0.00660125
0.00694547
0.00733537
0.00769051
0.00773871
0.00746402
0.00704308
0.00645711
0.00585707
0.00532667
0.00483317
0.00426312
0.00366538
0.00315061
0.00277224
0.0025248
0.00235606
0.00222967
0.00213022
0.00205389
0.00200121
0.00197326
0.00196986
0.00198865
0.00202459
0.00206942
0.00212748
0.00220222
0.00228991
0.00238421
0.0024711
0.00253631
0.00253586
0.00255673
0.00232053
0.00119214
0.00194165
0.00205644
0.00214055
0.00226827
0.0021638
0.00204202
0.00190197
0.00173346
0.001567
0.0014368
0.0013078
0.00118288
0.00106382
0.000956117
0.000863266
0.000788601
0.000734183
0.000700351
0.000683109
0.000674985
0.00067329
0.000676654
0.00068451
0.000696609
0.00071279
0.000732946
0.000757068
0.000785351
0.000818358
0.000857309
0.000902269
0.000953012
0.00100989
0.00107334
0.00114359
0.00123569
0.0012656
0.00123721
0.00115528
0.00106759
)
;

boundaryField
{
    floor
    {
        type            nutkWallFunction;
        Cmu             0.09;
        kappa           0.41;
        E               9.8;
        value           nonuniform List<scalar> 
29
(
0.000143247
5.39183e-05
6.63367e-05
7.08517e-05
6.8178e-05
6.4828e-05
6.13181e-05
5.76018e-05
5.40554e-05
5.08178e-05
4.78945e-05
4.52659e-05
4.29033e-05
4.07571e-05
3.87784e-05
3.69083e-05
3.50587e-05
3.30916e-05
3.22777e-05
2.95111e-05
2.9511e-05
4.38386e-05
5.31488e-05
6.0016e-05
0.000143247
5.39182e-05
7.06548e-05
0.000120846
0.000157336
)
;
    }
    ceiling
    {
        type            nutkWallFunction;
        Cmu             0.09;
        kappa           0.41;
        E               9.8;
        value           nonuniform List<scalar> 
43
(
0.000226846
0.00023933
0.000248434
0.000262308
0.000251102
0.000237931
0.000222666
0.000204127
0.000185618
0.000170991
0.00015635
0.000142018
0.000128198
0.000115543
0.0001045
9.55194e-05
8.89108e-05
8.47733e-05
8.26552e-05
8.1655e-05
8.14459e-05
8.18601e-05
8.28268e-05
8.43129e-05
8.62959e-05
8.87587e-05
9.16956e-05
9.51252e-05
9.91093e-05
0.000103787
0.000109155
0.000115177
0.000121883
0.000129314
0.000137483
0.000148107
0.000151538
0.000148282
0.000138836
0.000128644
0.00035118
0.000412199
0.000257963
)
;
    }
    sWall
    {
        type            nutkWallFunction;
        Cmu             0.09;
        kappa           0.41;
        E               9.8;
        value           uniform 0.00022691;
    }
    nWall
    {
        type            nutkWallFunction;
        Cmu             0.09;
        kappa           0.41;
        E               9.8;
        value           nonuniform List<scalar> 6(0.000102844 0.000107377 0.000120605 0.000141478 0.000143106 0.000128652);
    }
    sideWalls
    {
        type            empty;
    }
    glass1
    {
        type            nutkWallFunction;
        Cmu             0.09;
        kappa           0.41;
        E               9.8;
        value           nonuniform List<scalar> 9(0.000121228 0.000167707 0.000205958 0.000242608 0.000279469 0.000317721 0.000352942 0.000360069 0.000351631);
    }
    glass2
    {
        type            nutkWallFunction;
        Cmu             0.09;
        kappa           0.41;
        E               9.8;
        value           nonuniform List<scalar> 2(0.000186845 0.000173299);
    }
    sun
    {
        type            nutkWallFunction;
        Cmu             0.09;
        kappa           0.41;
        E               9.8;
        value           nonuniform List<scalar> 
14
(
0.000121147
0.000130755
0.000131979
0.000137753
0.000143035
0.000147876
0.000152475
0.000157079
0.000161146
0.000163792
0.000164419
0.000162483
0.000157793
0.000150943
)
;
    }
    heatsource1
    {
        type            nutkWallFunction;
        Cmu             0.09;
        kappa           0.41;
        E               9.8;
        value           nonuniform List<scalar> 3(7.71695e-05 9.22292e-05 0.000102841);
    }
    heatsource2
    {
        type            nutkWallFunction;
        Cmu             0.09;
        kappa           0.41;
        E               9.8;
        value           nonuniform List<scalar> 4(0.000144491 9.66747e-05 9.66747e-05 0.000140295);
    }
    Table_master
    {
        type            nutkWallFunction;
        Cmu             0.09;
        kappa           0.41;
        E               9.8;
        value           nonuniform List<scalar> 9(8.05837e-05 7.20587e-05 6.50599e-05 5.92954e-05 5.45103e-05 5.05038e-05 4.71272e-05 4.42835e-05 4.19332e-05);
    }
    Table_slave
    {
        type            nutkWallFunction;
        Cmu             0.09;
        kappa           0.41;
        E               9.8;
        value           nonuniform List<scalar> 9(8.96121e-05 8.34018e-05 7.94178e-05 7.65966e-05 7.40849e-05 7.12538e-05 6.84516e-05 6.53485e-05 6.14991e-05);
    }
    inlet
    {
        type            calculated;
        value           uniform 0.000100623;
    }
    outlet
    {
        type            calculated;
        value           nonuniform List<scalar> 2(0.00194165 0.00205644);
    }
}


// ************************************************************************* //
