/*--------------------------------*- C++ -*----------------------------------*=========                 |
  \      /  F ield         | OpenFOAM: The Open Source CFD Toolbox
   \    /   O peration     | Website:  https://openfoam.org
    \  /    A nd           | Version:  6
     \/     M anipulation  |
\*---------------------------------------------------------------------------*/
FoamFile
{
    version     2.0;
    format      ascii;
    class       volScalarField;
    location    "300";
    object      PMV;
}
// * * * * * * * * * * * * * * * * * * * * * * * * * * * * * * * * * * * * * //

dimensions      [0 0 0 0 0 0 0];

internalField   nonuniform List<scalar> 
459
(
1.7447891094064767
1.5389745955932248
1.5188646946711242
1.497182460291942
1.4813362197255187
1.469881261096886
1.463674428650631
1.4620942521314007
1.4651743370257908
1.4735730177454385
1.4876249591097945
1.5094621162859314
1.5418241904885976
1.580402431275718
1.5944157042709834
1.656291744651357
1.645310454243542
1.6414906226849295
1.641013134681278
1.6414906226849295
1.641968108680146
1.634992138987383
1.6322007379358197
1.6310999369830808
1.631214143256512
1.6316836669124608
1.6320413374337621
1.6328831224953355
1.6345895624874798
1.6381720586142665
1.6434005545955315
1.6429230746374925
1.6429230746374925
1.6500850613693026
1.719356270851827
1.5572219416188469
1.5541533659738442
1.5342930889975392
1.5220658898980166
1.5135969287328448
1.5086886252814176
1.507806177112921
1.5098388943030618
1.513448150561791
1.5195309124664604
1.5303421806583688
1.5473547296828059
1.56902453853162
1.5896016263760429
1.6133154619598626
1.6104498156306284
1.5973456885238146
1.6405356446712434
1.6371931585900266
1.6343751300909741
1.6250074452515586
1.6191720314983782
1.6164600752970828
1.6157852029991306
1.6148068842576602
1.613443078859868
1.6119299178376179
1.6104850251355665
1.6091436817218752
1.6084261193017528
1.6086274911435863
1.6133622122223297
1.6242998047324826
1.625732470050565
1.6064031596122428
1.7724068144910043
1.5569220838431235
1.5863675906198154
1.5754205738968463
1.5722675114360267
1.5706279900404676
1.5701816547385161
1.571521949008476
1.5724989818244675
1.5692763170779465
1.5622227606354502
1.5564963535726744
1.5561361233065811
1.5651976267013445
1.5873345020261551
1.6147482596007892
1.6142706622829153
1.542078750363679
1.5950800754115966
1.6103706045062758
1.6140144105360994
1.6160276718311275
1.6170805317195174
1.6174668931047795
1.620325529336088
1.621312022597598
1.6202979183624218
1.6179026443613311
1.6155764013936402
1.6127708782387777
1.6082489580600263
1.6009963596914587
1.5995455427343421
1.6144926299109619
1.6006610925923266
1.5477324797461893
1.8548820946192675
1.560941113432881
1.6101161418063827
1.6139021590663047
1.6262830551635385
1.6384070459048619
1.6479905688071272
1.6555533338132227
1.6540410945735593
1.6368806997584051
1.607396599990794
1.5766248635216722
1.5554012780286093
1.551971001510687
1.568447046414108
1.6042632960944876
1.6171362176763946
1.6001972815004466
1.5759172455905834
1.597924793724559
1.6176050767824124
1.6279283568617209
1.6339165870057155
1.635744247206358
1.6304670382197148
1.6214706889745598
1.6133319351732984
1.6069566841958662
1.6020714791557014
1.5994749302470848
1.6010161569621253
1.6089160245664627
1.6265942492566454
1.6268891528192329
1.6190002180931333
1.5757577070906978
1.5024734720876833
1.9477987196553674
1.5799537824675844
1.6319875303898057
1.6475276610458487
1.679557618508708
1.7128225772325483
1.743828073324074
1.7639035336876028
1.7442615601665592
1.6942420656891606
1.6350311752627102
1.5815739786976795
1.544975370711008
1.5342202907532276
1.5454147650112497
1.5724653507187285
1.5989177049223913
1.605336729533373
1.604941311163755
1.6229076199903705
1.6457846306922865
1.6539045999513529
1.6572465880478315
1.6596336601867088
1.6620206801886193
1.6629754735334465
1.6558278167414289
1.6481320102841357
1.6405854702439464
1.6347496977016918
1.6313672084262711
1.631482612671745
1.6335595182801887
1.6254216364523262
1.6077843162554915
1.5530980376605865
1.5507334041780363
1.6644076477962795
1.6410050209572404
1.4833428429703994
2.0377109077293025
1.6204675158096475
1.6760439812591679
1.6852361217807075
1.7236865153401493
1.7731931748904612
1.797032416489262
1.8227710870003404
1.773703648877792
1.6997275975410666
1.6278486045772242
1.5668739363000803
1.5280945070432468
1.5161604216695486
1.5290444834203154
1.5592036822583308
1.5955275503737099
1.6249567778994278
1.6434005545955315
1.6529497276306266
1.661065878460747
1.6667945627514191
1.6701361547389977
1.6725229422693675
1.674432333759519
1.6753870166138065
1.6758643548109293
1.6753870166138065
1.6739549891065675
1.6715682336670037
1.6677493139327788
1.6593158317076382
1.6476290917719358
1.6275049022269488
1.6015298497878165
1.5464171599747392
1.5485667583814904
1.5592465344850004
1.5540545085524833
1.5611983076184923
2.122504429363291
1.7126078593715022
1.8170334164564175
1.7687566455867505
1.761743672940511
1.7827283707763146
1.797794518466744
1.7750202507853399
1.7272149407497646
1.6606171286953437
1.5891416550617008
1.5312954531540521
1.4992537548711233
1.4972268254339374
1.5224384231206358
1.565489979798071
1.6169176858392054
1.6438780325371625
1.6572465880478315
1.6677493139327788
1.6753870166138065
1.6801603013041841
1.6830241678456177
1.68493336847695
1.6863652458956628
1.6868425339657365
1.6868425339657365
1.685887955622675
1.6839787725455795
1.6801603013041841
1.6749096762626738
1.668704056631689
1.6620206801886193
1.647572026784765
1.6136149247178442
1.562372335456891
1.545132136506847
1.5342229526305904
1.5071223569212753
1.5910995038743714
2.2525568509965623
2.0293934284597333
1.9867997083313584
1.8781154634218147
1.830192556433756
1.8046113643128774
1.7777183700593708
1.732612804083889
1.6643285930226168
1.5843740366668866
1.5135415375711623
1.4699458175201832
1.4610407413228712
1.4854788063771485
1.536280483319355
1.6027754743727194
1.6405356446712434
1.6605884744582835
1.6749096762626738
1.6835014712905794
1.6887516641753764
1.6925698182086204
1.694478841757111
1.6959105859129
1.6968650707912232
1.6968650707912232
1.696387829476088
1.6954333401039532
1.6930470774472253
1.689706216007703
1.68493336847695
1.6777736860165064
1.6710908761588459
1.6648850350077782
1.65772400663422
1.6486622247062068
1.6274387795553256
1.6161209394934182
1.5564190595091134
1.4765969812299249
2.4441553587671483
2.303709583456779
2.129415024053412
1.9762930802471244
1.8666931001154368
1.7875519091921122
1.717941140409827
1.6192675165496
1.5097999044282933
1.4246088610378262
1.3835203055232
1.3893258174453413
1.434635473513228
1.5093877127570823
1.5989865572623156
1.6338505749777945
1.663452867057023
1.6806376178447144
1.690660758968806
1.6968650707912232
1.7006829201236928
1.7030690023309438
1.7034576422710204
1.698409095232598
1.6935620188992189
1.6876962817122299
1.6815858053125097
1.67468364292939
1.666784309705696
1.657823890274405
1.6473969474653192
1.6363085027969921
1.6273199550711315
1.6153176276520729
1.6010107518261203
1.5883655138772395
1.5791847040377318
1.572840222752318
1.561795327769018
1.5303512413668738
-2.755890446096768
-0.7612496353216934
0.04944981986396296
0.4668209636765946
0.6701862969154521
0.8187774277396801
0.9643861941966286
1.1104094492432401
1.256132840230083
1.397677113942651
1.5163272858874335
1.5832228560540555
1.6367156526008073
1.6677493139327788
1.6868425339657365
1.6937035206055402
1.691133758613061
1.687832722920328
1.6839180399821523
1.6796893551319239
1.6753076922673482
1.6701586363791474
1.6646405798635708
1.6582641245692342
1.652088883164387
1.645371804317778
1.6394073626668146
1.6341091174847997
1.6303682254780214
1.6285906152902536
1.6279649444487378
1.6280448655473652
1.6287783200424215
1.6313581811442524
1.6414412967215024
1.6750649754960063
1.7416973672001332
1.5821424464431326
-2.1237985637723296
-0.5496048555631782
0.301234449928261
0.6955282317051616
0.9157671468974979
1.077118567531091
1.2125881439960549
1.3379602937291648
1.4599192505686513
1.5478684452104068
1.607055445666699
1.6232942432216044
1.6370767435446747
1.646730876537422
1.6532689190935177
1.6579583389776282
1.661173709166932
1.6621701628572343
1.6618210736621808
1.6608595935817578
1.6589863705694305
1.6567719894833035
1.6542683984690922
1.6520250511306007
1.649194378593151
1.6464752220122
1.6446600535434819
1.6432489399514894
1.6439662864437226
1.6476952363335573
1.6557714906387198
1.6681218087314267
1.6813544873374604
1.6922230198511887
1.7037948301830834
1.7407088022669215
1.6737342504690649
1.6220819258915717
-0.8946530473395885
-1.0305423315298377
-0.9150089445222301
0.2588855730641661
0.7365415683134761
0.990734092299782
1.1714664770044165
1.309840092730104
1.4095048508267918
1.4771026640735476
1.5273734611562706
1.5631241404894252
1.5889140812586242
1.6055154164427066
1.6140346499058993
1.6170112422851992
1.6165158088824347
1.6157314824973188
1.6156590575397287
1.615860249048537
1.6161379791380799
1.6173528540524982
1.6184053413586914
1.619229794568104
1.6207920777299425
1.6226007525104291
1.6247693296318526
1.6270567661282356
1.630909234431416
1.636486785002909
1.6444893168331733
1.6574366049900984
1.6792389716821787
1.7183715522791245
1.7526861804370972
1.759363396008135
1.7273250943937104
1.6825577625473362
1.637883418712034
1.6414552882454143
)
;

boundaryField
{
    ".*"
    {
        type            zeroGradient;
    }
}


// ************************************************************************* //
