/*--------------------------------*- C++ -*----------------------------------*=========                 |
  \      /  F ield         | OpenFOAM: The Open Source CFD Toolbox
   \    /   O peration     | Website:  https://openfoam.org
    \  /    A nd           | Version:  6
     \/     M anipulation  |
\*---------------------------------------------------------------------------*/
FoamFile
{
    version     2.0;
    format      ascii;
    class       volScalarField;
    location    "1100";
    object      PPD;
}
// * * * * * * * * * * * * * * * * * * * * * * * * * * * * * * * * * * * * * //

dimensions      [0 0 0 0 0 0 0];

internalField   nonuniform List<scalar> 
459
(
57.34328565831111
45.39638721941308
43.88537030758083
42.63618109504979
41.80366822056979
41.392343458680685
41.36652888944222
41.70823389973141
42.45399159770212
43.669878150835636
45.50418231717566
48.010398896902586
51.04860419082449
51.33426099811119
52.00993475037856
56.32856005268158
55.54862595631903
55.18443908252922
55.31451857277434
55.5226164777274
55.75667751375018
55.8322383144835
55.56532027432217
55.54267195083214
55.655099464862175
55.781356168656465
55.959584324663155
56.14484560430184
56.40700166020615
56.74737508168503
57.33293345343856
58.222157832944625
58.55850842363643
59.33343171442048
55.076609312285754
46.547753812973866
46.00584369737976
44.812337862243055
44.14256553171364
43.77645792746119
43.74418170622273
43.894297094720784
44.25390587036286
44.879801246498616
45.98638930699841
47.73936087611893
50.240871873393964
50.60741854875444
50.892850323488126
51.02264222138078
51.308286692971464
54.88372002606538
54.768107549001364
54.50785501850816
54.66400986463015
54.56225981460213
54.371485425587146
54.32887419720743
54.43885770012117
54.59591590457503
54.73591913955003
54.84023556171173
54.97592098410127
55.09488506133896
55.25254568945884
55.51371759879057
56.023099915706396
57.12908933201442
57.67820219860555
57.58763183956064
57.16424736090238
46.73759024089469
47.99454247435369
47.49760715351012
47.350955921955034
47.3310216141099
47.4171380349919
47.2960102133513
46.83645696193305
46.42363327775517
46.39087878702955
47.06146731295113
48.59828579273628
50.27030116929911
50.555538967556764
50.789038958164774
51.02264222138078
49.384275060988244
51.12258829285243
51.56353765767883
52.05413371016079
52.7345978954843
53.2439796516094
53.519396437801966
54.16151896865518
54.680418999428994
55.01002454837063
55.20957649455691
55.371182917924344
55.525348517770716
55.600522019967
55.48610849547251
55.681622534285125
56.71123467739975
56.44229221312973
54.201156667225
61.1803783455161
47.05489314953835
49.616766491862016
50.317563563082395
51.402426565532394
52.32683395204047
52.812583055460344
51.77631244547987
49.58644040811141
47.40320523436951
45.976326077650555
45.67573859140092
46.57555239377353
48.33097834480918
50.10210765941315
50.44016421669458
48.68799181614609
46.7283181629807
47.305230752934825
48.891588343003846
50.46389370075988
51.93188946745068
53.292889354308365
54.43501492577082
55.014958185727416
55.12712447694451
55.24981681377862
55.493784345079064
55.7607846414464
56.12573120263127
56.64555168690263
57.431858540944695
58.749159251014476
58.43023295315161
57.65751025552231
55.441345035051945
51.89463934559633
65.87793750233135
48.1781927685533
51.18650238605331
53.120883995166196
56.27430764925117
59.41081826350255
59.27933733685744
54.97631091993245
50.400058062805684
46.886282943027744
44.730000717945444
44.05424101267721
44.71907772959139
46.35344007696303
48.23914361253343
49.37866483761174
49.235738327142336
49.07066362303919
49.74146582525
51.2029858064549
53.01649900993014
54.75637141548075
56.346341409789424
57.68114119056059
58.602905882466146
59.033362456616594
59.3135148345777
59.54424930657717
59.69149546156485
59.76743125911076
59.84963645104057
59.98130989418595
60.079626434026835
59.27213267158021
57.76926755363172
54.56603697423663
54.255419012102514
61.696052437192535
61.232105714902616
52.496206142516144
70.49396637890614
50.507694894617295
54.129846442208716
56.261247669315374
60.31207562840709
61.90032419522289
58.146283781231865
53.295756064353206
48.68979630378534
45.00017155659276
42.79487945474219
42.305145205436105
43.330655285840876
45.45781739875673
48.0067118128704
50.20621361428627
51.528817011742355
52.50961283014968
53.8593346346527
55.63221411946982
57.41893125799472
58.45504916048566
59.35922948059291
60.08061507672368
60.67169575308952
61.15886717392419
61.54271227822067
61.82374693156962
61.976871525389335
61.95135909272307
61.82374693156962
61.568276969029306
61.210086457493276
60.11034887751388
58.12619954041705
54.68871451314801
54.530802952870395
55.59517290925978
55.7162745604872
56.50036033882746
74.8923560944354
55.750967622053146
62.4478434604281
61.58814578812183
61.064422301183214
58.42203832164847
54.27432817896894
49.33276189023739
44.71446248541062
41.47292565517943
40.08114735130902
40.6212931416808
42.74749428844023
46.03550136309645
49.86210086158893
53.41475511790932
54.92424404543507
56.276588457338185
57.52265738356805
58.687789496937256
59.74592031597913
60.67169575308952
61.440421887204145
62.027886304222086
62.51184006569961
62.867613292774344
63.12129020490259
63.298635850396174
63.32395534291215
63.22265388702602
62.91837892465293
62.53727610272396
62.053388628658816
61.38925786744348
59.481736554850826
56.20397888569558
54.92172280206424
54.3772912890412
53.097896733526035
57.745554429655904
80.75769989569757
72.61758780349648
70.43324776509715
65.44110864331736
61.194327870751756
55.18153645995348
48.23793406265597
42.102098024767315
37.965756087599665
36.30334560351935
37.065043771733095
39.833688106537814
44.13101199381737
49.50703686857101
53.72708500355535
55.990678994487865
57.78186814411224
59.178598559368204
60.31207562840709
61.26129361274256
62.10438309326866
62.79143683735808
63.32395534291215
63.753776290532436
64.05646639114156
64.28308393030727
64.4088311539872
64.43396746045178
64.38369045385629
64.20758342769159
63.93041872137332
63.50108108357
63.019864987095026
62.4355104794857
61.79821457585955
61.15886717392419
59.88630466065632
59.17390236697724
56.048593298359954
51.839601931458134
87.99862370435041
83.53509261125483
76.82415182708478
67.44676928485308
52.12572090622545
39.003964127772534
30.949111511241412
27.544443172329565
27.791280003292826
30.901759258238897
36.3967441086092
43.36093832354547
50.32214967750828
54.16957227826134
57.60043656132456
59.668624349449786
61.056392570557655
62.053388628658816
62.84222486450255
63.52636881627514
64.03985101960389
64.19676724239373
64.27749522576443
64.33180122622143
64.32167797945337
64.24317497668085
64.06503852687689
63.79016184680195
63.4257394658183
62.94712244208321
62.36766230256892
61.71687011216876
61.10814965799627
60.415280008001645
59.622118425500894
58.94729096334222
58.47481291431752
58.152136311028556
57.45345916956223
55.990141053625564
99.06912545815295
81.33183147843306
37.984042653250256
8.45372871155466
5.91558548236172
14.582229809215121
28.05204514643701
38.73013944271712
47.76427039514979
53.36270280067755
56.82515693904115
58.28082596149789
59.626248231925054
60.69240024604036
61.48844620485613
62.114151216077765
62.593880906386424
62.911303493297495
63.126699088849705
63.221773354203414
63.20446740431368
63.13224280664027
63.00711309828314
62.846005352551124
62.64134107989449
62.39313615515372
62.13558482305032
61.90734618669914
61.70161623953835
61.5326047482903
61.42170371944108
61.370859149108085
61.35732477026924
61.462520010954655
61.94865186622765
63.567064723832246
69.10240077394036
61.7607239424579
93.85227020226978
26.90254574760928
5.090847757068715
13.33023111995017
23.389442081227315
32.419633034706806
40.00444756230355
46.239108760753275
51.11069743400491
54.51144167265436
56.882344186660674
58.589460045520624
59.81460917790275
60.7335304170965
61.384158500031425
61.89639533681394
62.27128353570266
62.51522913450511
62.664157260008096
62.752709148541086
62.81325601579051
62.82297333450659
62.80067310307005
62.76628708255825
62.693313853441595
62.63862438647485
62.56087714813743
62.53093035429666
62.547726073011475
62.67914046096353
62.998643377403546
63.534331622866745
64.15855436535341
64.78585600538578
65.55797861648749
68.70716528469154
63.71292950907077
68.18033968394184
17.739112036058174
22.677749376096884
18.45387706047653
9.49673692502327
24.711531566236573
33.8493772408911
40.14819546911681
45.260646346050166
49.45901556386185
52.88442857586542
55.62605660819128
57.677842216685676
59.17538914067821
60.27623975807451
61.036071528437525
61.57359001524078
61.93434890334256
62.16344351943031
62.30505182432216
62.37677481337928
62.39433422198246
62.39587237837084
62.41441694415646
62.42512829565711
62.42776979664974
62.44151237390434
62.497914492539024
62.554286299557305
62.65388052310177
62.81192139156505
63.100293706013225
63.61435379315076
64.5090655547236
66.13637257811531
67.63583657847282
67.85590651552684
68.12423711147736
64.65745607350462
64.98824749258752
59.906490186661706
)
;

boundaryField
{
    ".*"
    {
        type            zeroGradient;
    }
}


// ************************************************************************* //
