/*--------------------------------*- C++ -*----------------------------------*\
  =========                 |
  \\      /  F ield         | OpenFOAM: The Open Source CFD Toolbox
   \\    /   O peration     | Website:  https://openfoam.org
    \\  /    A nd           | Version:  6
     \\/     M anipulation  |
\*---------------------------------------------------------------------------*/
FoamFile
{
    version     2.0;
    format      ascii;
    class       volScalarField;
    location    "1100";
    object      alphat;
}
// * * * * * * * * * * * * * * * * * * * * * * * * * * * * * * * * * * * * * //

dimensions      [1 -1 -1 0 0 0 0];

internalField   nonuniform List<scalar> 
459
(
0.00130699
0.00143067
0.00145557
0.00152656
0.0015929
0.00165534
0.00171688
0.00177585
0.00181691
0.0018336
0.00182002
0.00177244
0.00169047
0.00158102
0.00146149
0.000583688
0.000708014
0.000789562
0.000779246
0.000749126
0.000711781
0.000666986
0.000623217
0.000583607
0.000548441
0.00051729
0.000489603
0.000465052
0.000442979
0.000422644
0.000403081
0.000382996
0.0003729
0.000344049
0.00178694
0.00445131
0.00428995
0.00500767
0.00570906
0.00640573
0.00701331
0.00747806
0.00789186
0.00822271
0.00842569
0.00844898
0.00821226
0.00751455
0.00562102
0.00149109
0.000867853
0.000632121
0.00128623
0.00176474
0.00210662
0.00228082
0.00226611
0.00183533
0.00158786
0.00140956
0.00127197
0.00116201
0.00107206
0.000992921
0.000919791
0.000849762
0.00078801
0.000731445
0.000885952
0.000466718
0.00218337
0.00609351
0.00534545
0.00674495
0.00745158
0.00797819
0.00838837
0.00871863
0.00906588
0.00941754
0.00973103
0.00994796
0.0100013
0.00979413
0.00906371
0.00690739
0.00148739
0.00125077
0.00178144
0.00225353
0.00267163
0.00294845
0.0028548
0.00095068
0.0008392
0.000750027
0.000678293
0.000619981
0.000572038
0.000532295
0.000499329
0.000472539
0.000508649
0.000584315
0.00100702
0.000550329
0.00256112
0.00778349
0.00539934
0.00716436
0.00781478
0.00805934
0.00822528
0.00841207
0.00869998
0.00906872
0.00947021
0.00983203
0.010082
0.0101451
0.00992971
0.00912361
0.00657343
0.00177312
0.00222124
0.00286141
0.00345145
0.0038953
0.00414584
0.00385085
0.00106814
0.000971447
0.000903141
0.000851529
0.000807624
0.0007668
0.000727634
0.000686529
0.000638798
0.000600874
0.000618883
0.0012009
0.000610301
0.00294372
0.00992583
0.00599683
0.00693491
0.00777193
0.00788421
0.00784872
0.00796951
0.00823077
0.0086147
0.00907338
0.00950837
0.00981981
0.00993028
0.00981725
0.00943532
0.00857759
0.00701744
0.006455
0.00623066
0.00610966
0.00601188
0.00589226
0.00562014
0.0047135
0.00428726
0.00404091
0.00384948
0.0036475
0.00335978
0.00296927
0.00249966
0.00198553
0.00147654
0.00109255
0.00115397
0.000804436
0.000752272
0.000895927
0.0010032
0.00334657
0.0122361
0.00824589
0.0070361
0.00761762
0.00791324
0.00776743
0.0078591
0.00806229
0.00841394
0.00889001
0.00937722
0.00972797
0.00983146
0.00966837
0.00930944
0.00885826
0.00838275
0.00806611
0.00779499
0.00750567
0.00720941
0.00691197
0.00658058
0.00614171
0.00576657
0.0054439
0.00514208
0.00484222
0.00452648
0.00412691
0.00362513
0.0030252
0.00236505
0.00178338
0.00131174
0.00106707
0.000954021
0.00138061
0.00105284
0.0037044
0.0138053
0.0113901
0.00908136
0.00866476
0.00847386
0.00817239
0.00802311
0.00812056
0.00847824
0.00901474
0.00956349
0.00993318
0.00999247
0.00973403
0.00929575
0.00890625
0.00869667
0.00856444
0.00832585
0.00795411
0.00750989
0.00703569
0.00655258
0.0060848
0.00567485
0.00531566
0.00499118
0.00469838
0.00444222
0.00422106
0.00390586
0.00344749
0.00287938
0.00234746
0.00185152
0.00154997
0.00148262
0.00152282
0.00120382
0.00376376
0.0120799
0.0108841
0.0101625
0.00942422
0.0086405
0.00810027
0.00795784
0.00822195
0.00879855
0.00950875
0.010123
0.0104324
0.0103373
0.00989251
0.00932656
0.0089413
0.00879884
0.00857997
0.00812035
0.00750773
0.0068406
0.00619488
0.00562726
0.00516371
0.00479438
0.00449383
0.00424941
0.00406163
0.00393629
0.00387819
0.00385404
0.00365519
0.00329296
0.00299462
0.00288643
0.00308369
0.00363347
0.00466439
0.00181406
0.00365265
0.00431355
0.004773
0.00487668
0.00509584
0.00558762
0.00638696
0.00745228
0.00865331
0.00980094
0.0106916
0.0111458
0.0110707
0.0105435
0.00979485
0.00922063
0.00877665
0.00833983
0.00774289
0.00698334
0.00617555
0.00543315
0.00482359
0.00435781
0.00400828
0.00373775
0.00351888
0.00333712
0.00318401
0.0030526
0.00293704
0.00283494
0.00275941
0.0027141
0.00271777
0.00275688
0.00275589
0.0026483
0.00245837
0.00168331
0.00178014
0.00436147
0.00771227
0.00992989
0.0114209
0.0123642
0.0127991
0.0127997
0.0124539
0.0118394
0.0109692
0.00994869
0.00904085
0.00834664
0.00766943
0.00689808
0.00607496
0.00528936
0.0046086
0.0040771
0.00368982
0.00340878
0.00319805
0.00303401
0.00290405
0.00280262
0.00272824
0.00268244
0.00266958
0.00269039
0.00273232
0.00279286
0.00286616
0.00293066
0.00295894
0.00295741
0.00262076
0.00139797
0.00262141
0.00777811
0.010838
0.0116352
0.0119281
0.011829
0.0113521
0.0106247
0.00977226
0.00890349
0.00807929
0.00733075
0.00667121
0.00602387
0.00535067
0.00471578
0.00417223
0.00373252
0.0033855
0.00311482
0.00291121
0.00275797
0.00264449
0.00256641
0.002522
0.00250898
0.00252248
0.00255443
0.00261823
0.00270777
0.00281837
0.00294233
0.00306462
0.00317032
0.00326024
0.00326516
0.0022534
0.00144472
0.00231681
0.00245742
0.0025585
0.00273723
0.00262956
0.00252778
0.00245022
0.00233907
0.00218756
0.00200436
0.00179813
0.00158408
0.00138467
0.00121919
0.00109243
0.000999006
0.000931052
0.000881924
0.000847106
0.000824027
0.000811272
0.000807059
0.000809142
0.000816962
0.000830263
0.000849009
0.000873336
0.000903615
0.000940645
0.000985908
0.00103832
0.00109853
0.00116681
0.00124348
0.00132809
0.00142586
0.00145142
0.00132458
0.00123198
0.00139073
)
;

boundaryField
{
    floor
    {
        type            compressible::alphatWallFunction;
        Prt             0.85;
        value           nonuniform List<scalar> 
29
(
0.000205758
8.18946e-05
0.000100341
0.000112225
0.00011073
0.000106352
0.000100894
9.43016e-05
8.78075e-05
8.18821e-05
7.658e-05
7.1848e-05
6.76123e-05
6.3831e-05
6.041e-05
5.72391e-05
5.417e-05
5.09992e-05
4.93975e-05
4.47888e-05
4.47882e-05
6.40887e-05
7.68659e-05
8.58809e-05
0.000205756
8.18936e-05
8.91321e-05
0.000177098
0.000247322
)
;
    }
    ceiling
    {
        type            compressible::alphatWallFunction;
        Prt             0.85;
        value           nonuniform List<scalar> 
43
(
0.000317865
0.000335833
0.000348685
0.000371434
0.000357901
0.000345023
0.00033517
0.000320978
0.000301509
0.000277768
0.000250754
0.000222352
0.000195507
0.000172897
0.00015534
0.000142251
0.000132641
0.000125642
0.000120654
0.000117334
0.000115494
0.000114886
0.000115187
0.000116315
0.000118232
0.000120927
0.000124414
0.000128738
0.000134003
0.000140406
0.000147777
0.000156193
0.000165672
0.000176241
0.000187818
0.000201094
0.000204547
0.000187341
0.000174666
0.000196346
0.000485237
0.000565341
0.000356425
)
;
    }
    sWall
    {
        type            compressible::alphatWallFunction;
        Prt             0.85;
        value           uniform 0.00031659;
    }
    nWall
    {
        type            compressible::alphatWallFunction;
        Prt             0.85;
        value           nonuniform List<scalar> 6(0.000142492 0.000149453 0.000170415 0.00019697 0.000203292 0.000195995);
    }
    sideWalls
    {
        type            empty;
    }
    glass1
    {
        type            compressible::alphatWallFunction;
        Prt             0.85;
        value           nonuniform List<scalar> 9(0.000180101 0.000243558 0.000294697 0.0003426 0.00039043 0.000440144 0.000483837 0.00049119 0.000477948);
    }
    glass2
    {
        type            compressible::alphatWallFunction;
        Prt             0.85;
        value           nonuniform List<scalar> 2(0.00025077 0.000233655);
    }
    sun
    {
        type            compressible::alphatWallFunction;
        Prt             0.85;
        value           nonuniform List<scalar> 
14
(
0.000184816
0.000201603
0.000204965
0.000214516
0.000223397
0.00023172
0.000239889
0.000247686
0.000253097
0.000255292
0.000253505
0.000247232
0.000236383
0.000221807
)
;
    }
    heatsource1
    {
        type            compressible::alphatWallFunction;
        Prt             0.85;
        value           nonuniform List<scalar> 3(0.000106965 0.000127669 0.000142872);
    }
    heatsource2
    {
        type            compressible::alphatWallFunction;
        Prt             0.85;
        value           nonuniform List<scalar> 4(0.000209922 0.000123654 0.000123653 0.000209423);
    }
    Table_master
    {
        type            compressible::alphatWallFunction;
        Prt             0.85;
        value           nonuniform List<scalar> 9(0.000135451 0.000119542 0.000106636 9.61197e-05 8.74714e-05 8.02861e-05 7.4273e-05 6.92428e-05 6.5124e-05);
    }
    Table_slave
    {
        type            compressible::alphatWallFunction;
        Prt             0.85;
        value           nonuniform List<scalar> 9(0.000151981 0.000138393 0.000128698 0.000121316 0.000114994 0.00010908 0.000103369 9.7336e-05 9.02748e-05);
    }
    inlet
    {
        type            fixedValue;
        value           uniform 1.94e-05;
    }
    outlet
    {
        type            zeroGradient;
    }
}


// ************************************************************************* //
