/*--------------------------------*- C++ -*----------------------------------*=========                 |
  \      /  F ield         | OpenFOAM: The Open Source CFD Toolbox
   \    /   O peration     | Website:  https://openfoam.org
    \  /    A nd           | Version:  6
     \/     M anipulation  |
\*---------------------------------------------------------------------------*/
FoamFile
{
    version     2.0;
    format      ascii;
    class       volScalarField;
    location    "1100";
    object      PMV;
}
// * * * * * * * * * * * * * * * * * * * * * * * * * * * * * * * * * * * * * //

dimensions      [0 0 0 0 0 0 0];

internalField   nonuniform List<scalar> 
459
(
1.6624392496630822
1.4474501494407932
1.4225847953588528
1.4001887774601205
1.3844370171726552
1.374898741548855
1.3715948716344717
1.3739424807545155
1.3821678486027325
1.3968695331549021
1.4195009635226794
1.4506729619205583
1.4930598848555179
1.541873121498403
1.5464346658721793
1.6013522965997598
1.5894153598359368
1.5855953002051597
1.5865503259000024
1.5884603557302743
1.5903703567153737
1.591802838452764
1.5885821789703023
1.5879760640266993
1.5881641973954874
1.5893225078278121
1.5904317737980378
1.5920502319235832
1.5945326307546577
1.5993276241662455
1.6066041835120177
1.6085139044693382
1.6109010133031934
1.6214037270771728
1.6259736261248596
1.4686334933937943
1.4613724450362955
1.4409603679608511
1.4289581123834518
1.4214189137340358
1.418990640536249
1.4205942313548716
1.4249051135032067
1.4321702421971207
1.444482282320285
1.4648761178779601
1.4943679082693924
1.5302996275229719
1.5368812374097593
1.5349704740605614
1.5292380307014564
1.5579866182956437
1.582730180179957
1.5789099205040398
1.5803425311766675
1.5760655205843535
1.5716659141782476
1.569771291668986
1.5696094436809662
1.5698450234933297
1.5697453215499972
1.5694980502515947
1.5693214736203527
1.5692862530020448
1.569435794539418
1.5710048995988213
1.5777204153010735
1.5894153598359368
1.5932353038471139
1.5805401715243903
1.669104134250878
1.4712724985855048
1.496577927513154
1.487154559524523
1.4847608523508222
1.4842715902308066
1.485598631879107
1.4874403597752675
1.484759029599969
1.478883745831555
1.4750218301970557
1.477667138630262
1.491668023058278
1.516787528263328
1.5359258589453013
1.5368812374097593
1.536403548980931
1.4781519790825117
1.524079956144718
1.538571858376286
1.5472164878730592
1.5551154511109222
1.561038770689185
1.563574490418986
1.5695884335274108
1.5732835181320761
1.5743682201137312
1.574230133686775
1.5740653859873026
1.5729117993065398
1.570475293999126
1.5652795115777864
1.5665319877225914
1.5841580920471954
1.5724198316874074
1.5192945568398672
1.7460875192158452
1.4766628591493594
1.5238453458266232
1.5329000671431443
1.549983332874586
1.5650387034528894
1.5779073405986221
1.578612761709716
1.5589844214434554
1.5267329774890068
1.4957386976475804
1.476286813581786
1.473404935672742
1.4882824216933364
1.5167760450358487
1.5383142930378972
1.5349056728045025
1.4948796619697187
1.4877537856110743
1.5146518322276055
1.5390784688062924
1.5581031298973003
1.573154295253314
1.5836089864101608
1.586215321318148
1.5836500345002265
1.5822785398934232
1.581639552596798
1.581997404555986
1.583724333412935
1.5893935018324894
1.6001033445144297
1.6212194496004353
1.6137654814549536
1.599307385519391
1.552115932503536
1.4734409770045234
1.835702926789272
1.4968098011732869
1.5504274833216287
1.5772200046588196
1.6220097448455184
1.6722090344958016
1.7049129309527982
1.6764591130444593
1.6115675197331518
1.544770280121014
1.491353851041663
1.4585636646259188
1.4485808386928014
1.4584621434362686
1.4833762713815974
1.510993381627994
1.5230442442297938
1.5218309523200968
1.5280464434146992
1.5515653577029536
1.5797201680053883
1.6039767632416264
1.6214037270771728
1.629041477503538
1.6357240966005355
1.6414517450563357
1.6446348829725705
1.6432142725646
1.6405647591288544
1.6376554516885273
1.636235288032009
1.6361267621748947
1.637098075481024
1.6232056550809768
1.5970525700578762
1.5339246631193841
1.526631541521261
1.6533834089142463
1.6377419619729383
1.4732035664111516
1.9254458867838613
1.5397806420553268
1.6028544312803874
1.6286372940509393
1.6927359956641308
1.7216066964401615
1.7403712364215642
1.663439991169453
1.5901196470354666
1.5196911366924704
1.4627085599993204
1.4290729252545828
1.420794577030281
1.4356879423474123
1.467740206931301
1.5062729126917682
1.53925274628273
1.5632801819482154
1.5874066119092334
1.6094687536627543
1.624267941947258
1.6366787247038008
1.6467018343559572
1.6543378866080698
1.660541788859991
1.6657909677569525
1.6696083913320146
1.6724713692685045
1.6734256780639134
1.6719942116436883
1.6686540482255163
1.6634050090059667
1.655769587603263
1.6321523216113327
1.5982508887076825
1.5336053302415453
1.5322056136448092
1.5438200483162816
1.5408621547641745
1.5524134196415456
2.0143317876635956
1.6347711400999012
1.7537168121159685
1.724140816537634
1.719662084986036
1.7052042796346472
1.6624061402590282
1.5994447649780585
1.5257212703145748
1.4567085925656877
1.407256185394359
1.385893810195234
1.393506726090147
1.425484502902213
1.4754139762717058
1.5335462209196373
1.579387459163152
1.6018297501703664
1.6218811010694043
1.6385879569254937
1.6529061669643483
1.6638822049867343
1.6724713692685045
1.679151349233332
1.683922502202693
1.687739266172962
1.6906017460294627
1.6920329558616687
1.6915558881527026
1.6886934350223992
1.6834453967773129
1.6758114123044152
1.6672225175660698
1.655769587603263
1.6180226422777164
1.55807394715046
1.534821384111532
1.520842465429864
1.4942179672221227
1.5817690411464442
2.146678362583479
1.953071142851814
1.9090841138562145
1.8080435772110706
1.755999128462646
1.6882113492450046
1.5971542151898217
1.4983397489373371
1.4098415314959714
1.3489878099176091
1.323786494742998
1.3357788742170515
1.3793545720386582
1.4453856365852884
1.525908159473267
1.5789099205040398
1.610423595312227
1.636201411649902
1.655769587603263
1.67056272588582
1.68153695310354
1.6896475949802954
1.6963264642751483
1.7006197898349764
1.7039589156144264
1.7063439367289999
1.7072979290665065
1.7068209340505471
1.7053899351779271
1.702527875419404
1.6977575931903746
1.6901246716195797
1.6810598367027108
1.6710398899502528
1.660541788859991
1.6495654155828483
1.6260483637413234
1.6128771663322279
1.5517007190167467
1.4661635190310631
2.342745147102938
2.210123994286716
2.04236972956337
1.867762396619117
1.6979573366042167
1.5029020727890872
1.334885401621065
1.2198612132950892
1.1687217031593329
1.1767873610305288
1.2322039664002187
1.3224866254992602
1.431959935632431
1.5297157430507105
1.5789099205040398
1.624267941947258
1.6533834089142463
1.6734256780639134
1.687739266172962
1.6982346316371282
1.70586693710403
1.7109476965785806
1.7097713910465575
1.7084301050387674
1.7059524782563533
1.7027258110694492
1.6978983375564345
1.6912668015468442
1.6831174585016648
1.673562942011065
1.6629437905250397
1.6505131359873522
1.6392831117782996
1.6265827636867165
1.6120065256687874
1.5989560011297945
1.5891371233450065
1.5816015257432854
1.5686183609628772
1.540181110129267
-2.9578263524829054
-1.7042574748723411
-1.0700500750812132
-0.37880504747192734
0.14870225331874806
0.5654997312214779
0.905491890448114
1.1867293122944156
1.3499987260379176
1.4728573364443014
1.5559874369109914
1.6089913300081087
1.6456019511446156
1.6595005622913113
1.6706544236612764
1.6783462826241327
1.6834887141377388
1.6858214740073016
1.6866627757828572
1.6857457451304128
1.6844261168733032
1.6819888515720818
1.678691420047607
1.6743797866263685
1.669512814316446
1.6637404160904676
1.6583202231145726
1.6536587934894311
1.6496541857825529
1.6469790930212929
1.6449589915185834
1.6440463886521528
1.644151057465202
1.645460188202116
1.6537332686276256
1.6849504106412414
1.7969294620947214
1.638473246587415
-2.4349941835761535
-0.9766376290803391
0.035581080994615974
0.547531105389456
0.8758110278673674
1.0830850820465645
1.2362410799189965
1.3547999398681174
1.4466577439590314
1.5160566913542928
1.565390552250193
1.5990694838932422
1.6226759387121559
1.639621195695752
1.6511652284590534
1.6588226800971928
1.6635804438962034
1.6665837303653552
1.6686638019824676
1.669773950263085
1.6701414222607265
1.6702185338509792
1.6695060576959373
1.6684782509542815
1.667651909900217
1.666157174189428
1.6646915199494996
1.6641908259958202
1.6647049469684507
1.6676297179980395
1.6738947701547728
1.6848823283112058
1.697246271398696
1.7080386045975087
1.7221818890351364
1.783109259318521
1.6791523922846474
1.7683695058437394
-0.8949172423104498
-1.0343377935447637
-0.9127129032406857
0.3252050969394604
0.842626490334048
1.0637433693842124
1.2001851527905003
1.305840966494885
1.3911481442231106
1.4608920841288624
1.517704847281321
1.5616863933905087
1.594279475968353
1.616779276760617
1.6305320091956623
1.6387736804701634
1.6421639269326935
1.6431466122428795
1.643028022012679
1.641888160389996
1.6415656922187465
1.6409969753802305
1.6408990067950364
1.6412668130276145
1.6420923831722636
1.6433980982191483
1.6447730787633987
1.647432038451595
1.6512354921035048
1.6567143235333524
1.6641930996737264
1.675593230673874
1.6956989714160804
1.7307493537209908
1.761659676888525
1.766426708281122
1.7711934802598719
1.6932747327999753
1.69616293018844
1.5993344699981331
)
;

boundaryField
{
    ".*"
    {
        type            zeroGradient;
    }
}


// ************************************************************************* //
