/*--------------------------------*- C++ -*----------------------------------*\
  =========                 |
  \\      /  F ield         | OpenFOAM: The Open Source CFD Toolbox
   \\    /   O peration     | Website:  https://openfoam.org
    \\  /    A nd           | Version:  6
     \\/     M anipulation  |
\*---------------------------------------------------------------------------*/
FoamFile
{
    version     2.0;
    format      ascii;
    class       volScalarField;
    location    "2500";
    object      alphat;
}
// * * * * * * * * * * * * * * * * * * * * * * * * * * * * * * * * * * * * * //

dimensions      [1 -1 -1 0 0 0 0];

internalField   nonuniform List<scalar> 
459
(
0.00132541
0.0014532
0.00148168
0.001555
0.00162376
0.00168904
0.00175424
0.00181377
0.00185353
0.00186673
0.00184752
0.00179232
0.00169993
0.00157554
0.00143437
0.000599793
0.000724475
0.000815334
0.000813956
0.000787211
0.00075097
0.000704379
0.00065797
0.000615857
0.000578499
0.000545447
0.000516105
0.000490029
0.000466633
0.000445091
0.000424363
0.000402986
0.00038961
0.000356946
0.00180225
0.00452672
0.00438084
0.00511521
0.00583934
0.00655163
0.00715306
0.00762722
0.0080447
0.00837222
0.00856786
0.00858842
0.00836854
0.00773991
0.00601314
0.00147418
0.000861827
0.000636623
0.00134068
0.00187228
0.00226245
0.00247308
0.00246475
0.00196263
0.00168854
0.00149418
0.00134569
0.00122795
0.00113225
0.0010497
0.000972582
0.000897391
0.000830348
0.000770707
0.000916008
0.000473208
0.00219485
0.00618639
0.00547079
0.0068448
0.0075428
0.00806282
0.00846523
0.00880737
0.00916856
0.00953189
0.00985039
0.0100702
0.0101294
0.00992135
0.00914311
0.00692023
0.00151417
0.00123051
0.0018019
0.0023379
0.00282919
0.00316639
0.00308076
0.0010001
0.000882332
0.000787593
0.000711167
0.000648962
0.0005978
0.0005554
0.000520312
0.000491973
0.000531826
0.000615858
0.00103886
0.000552465
0.00256803
0.0078613
0.00553101
0.00725038
0.00785186
0.00807671
0.00824266
0.00845403
0.00876726
0.00916151
0.00957426
0.00993905
0.0101838
0.0102184
0.00997774
0.00910827
0.00618855
0.00178538
0.00222379
0.00289235
0.00355666
0.00408981
0.00441188
0.00412202
0.00112457
0.00102376
0.000951607
0.000896111
0.00084828
0.000804676
0.000762648
0.000718593
0.000667666
0.000625904
0.000645245
0.00121723
0.000611229
0.0029461
0.00998559
0.00611762
0.00704503
0.00779784
0.00787372
0.00784902
0.00800676
0.0082944
0.00871434
0.00918366
0.00961288
0.00989599
0.00997118
0.00983278
0.00944282
0.00857373
0.00712647
0.00662981
0.00647879
0.00643445
0.00639739
0.00631074
0.00603529
0.0050544
0.00458396
0.00430726
0.00409071
0.003864
0.00353893
0.00311511
0.00261417
0.00206846
0.00152943
0.00113055
0.00119178
0.000800591
0.000744601
0.000889534
0.000996046
0.00334506
0.0122877
0.00836323
0.00718449
0.00773347
0.00785639
0.00780287
0.0079031
0.0081299
0.008519
0.00902046
0.0094997
0.00980633
0.00984982
0.00964545
0.00929776
0.00891983
0.00857079
0.00837797
0.00820935
0.00799206
0.00773185
0.00743771
0.0070861
0.00661002
0.00619999
0.00584825
0.0055211
0.0051961
0.00484183
0.00439541
0.00384002
0.00317987
0.00246113
0.0018373
0.00136822
0.00107149
0.000944702
0.00136724
0.00104476
0.00369867
0.0138448
0.011498
0.00922876
0.00884377
0.00851383
0.00817492
0.00804349
0.00819306
0.00861044
0.00918182
0.00971612
0.0100226
0.0099981
0.00968505
0.00927657
0.00901817
0.00898706
0.00899767
0.00884951
0.00852433
0.00808949
0.00759685
0.00707799
0.00656537
0.00611925
0.00573251
0.00538641
0.00507499
0.00480209
0.00456312
0.00418151
0.00364892
0.00301371
0.00242095
0.0018893
0.0015408
0.00147223
0.00154433
0.00120366
0.00375685
0.0120572
0.0109002
0.0100745
0.00928302
0.00849902
0.00802358
0.00797822
0.00834459
0.00900011
0.00973632
0.0103062
0.0105177
0.0103139
0.00981625
0.00932693
0.00913733
0.00918349
0.00906539
0.00866469
0.00807172
0.00738662
0.006695
0.00607036
0.00555649
0.00515251
0.00482877
0.00456675
0.00436426
0.0042277
0.00416332
0.0041204
0.00380492
0.00338413
0.00302912
0.00288161
0.00308576
0.00375442
0.00472139
0.00185721
0.00364647
0.00430297
0.00474228
0.00485534
0.00511494
0.0056838
0.00657701
0.00772967
0.008988
0.0101418
0.0109693
0.0112886
0.0110594
0.010421
0.00969836
0.00926248
0.00899431
0.00868798
0.00816918
0.00744211
0.006618
0.00582018
0.00514201
0.0046187
0.00423152
0.00393891
0.0037052
0.00350954
0.00333942
0.00318499
0.00303816
0.00290378
0.00279748
0.00272882
0.0027203
0.00275658
0.00275378
0.00263755
0.00245059
0.00170835
0.00172976
0.00438952
0.00793007
0.010218
0.0117188
0.0126306
0.0130029
0.0129176
0.0124645
0.0117411
0.0107225
0.00969196
0.00890619
0.0083576
0.00780486
0.00712365
0.00633689
0.00552784
0.00478178
0.00417696
0.00373318
0.00341924
0.00319378
0.00302513
0.00289451
0.00279275
0.0027165
0.00266675
0.00264893
0.00266004
0.00268711
0.00272673
0.00276595
0.00276819
0.00267845
0.00247785
0.00218055
0.00137661
0.00261823
0.0080718
0.0110468
0.0118088
0.0120298
0.0118406
0.0112743
0.01047
0.00956137
0.00867339
0.00783601
0.00713282
0.00654846
0.00596451
0.00533252
0.00469812
0.00411557
0.00362135
0.00322955
0.00292942
0.00271555
0.00256818
0.00247141
0.00241559
0.00239463
0.00240321
0.0024344
0.00248264
0.00255645
0.00265024
0.00275959
0.00287574
0.00297946
0.00305337
0.00304077
0.00304387
0.00275276
0.00139369
0.00231595
0.00245718
0.00255865
0.00273852
0.00262255
0.00251902
0.00243437
0.00231303
0.00215014
0.0019552
0.00173847
0.0015189
0.00132287
0.00116594
0.00104818
0.000961664
0.000898071
0.000851637
0.00081923
0.000799174
0.000790134
0.000790544
0.000797639
0.000810449
0.000828409
0.000851288
0.000879129
0.000912283
0.000951576
0.000998065
0.0010511
0.00111125
0.001179
0.00125494
0.00133906
0.00145066
0.00148257
0.00144599
0.00134884
0.00124423
)
;

boundaryField
{
    floor
    {
        type            compressible::alphatWallFunction;
        Prt             0.85;
        value           nonuniform List<scalar> 
29
(
0.000202097
8.43106e-05
0.000102754
0.00011595
0.000115752
0.000111886
0.000106622
9.98093e-05
9.2969e-05
8.6711e-05
8.11158e-05
7.6128e-05
7.16687e-05
6.76792e-05
6.40769e-05
6.074e-05
5.75096e-05
5.4157e-05
5.20478e-05
4.68573e-05
4.68567e-05
6.50922e-05
7.71913e-05
8.60217e-05
0.000202095
8.43096e-05
8.98029e-05
0.000174316
0.000248939
)
;
    }
    ceiling
    {
        type            compressible::alphatWallFunction;
        Prt             0.85;
        value           nonuniform List<scalar> 
43
(
0.00031776
0.000335808
0.00034871
0.000371604
0.000357021
0.000343917
0.000333153
0.000317645
0.000296681
0.00027136
0.000242881
0.000213624
0.000187103
0.00016555
0.000149159
0.000136981
0.000127949
0.000121306
0.000116644
0.000113748
0.00011244
0.000112499
0.000113526
0.000115377
0.000117967
0.000121256
0.000125244
0.000129974
0.000135554
0.000142121
0.000149571
0.000157966
0.000167359
0.000177815
0.000189315
0.000204446
0.000208749
0.000203817
0.000190648
0.000176351
0.000484481
0.000564069
0.000356017
)
;
    }
    sWall
    {
        type            compressible::alphatWallFunction;
        Prt             0.85;
        value           uniform 0.000316488;
    }
    nWall
    {
        type            compressible::alphatWallFunction;
        Prt             0.85;
        value           nonuniform List<scalar> 6(0.000141488 0.000148326 0.000170396 0.000194076 0.000196392 0.000176004);
    }
    sideWalls
    {
        type            empty;
    }
    glass1
    {
        type            compressible::alphatWallFunction;
        Prt             0.85;
        value           nonuniform List<scalar> 9(0.00018257 0.000245545 0.000296156 0.000343461 0.000390718 0.000439953 0.000483138 0.000490348 0.000477194);
    }
    glass2
    {
        type            compressible::alphatWallFunction;
        Prt             0.85;
        value           nonuniform List<scalar> 2(0.000256436 0.000236975);
    }
    sun
    {
        type            compressible::alphatWallFunction;
        Prt             0.85;
        value           nonuniform List<scalar> 
14
(
0.000187329
0.000204644
0.000208482
0.000218328
0.000227515
0.000236196
0.000244831
0.000252682
0.000257912
0.000259644
0.000257121
0.000249854
0.000237637
0.000221073
)
;
    }
    heatsource1
    {
        type            compressible::alphatWallFunction;
        Prt             0.85;
        value           nonuniform List<scalar> 3(0.000105847 0.000126756 0.000141863);
    }
    heatsource2
    {
        type            compressible::alphatWallFunction;
        Prt             0.85;
        value           nonuniform List<scalar> 4(0.000207645 0.000122792 0.000122791 0.000213023);
    }
    Table_master
    {
        type            compressible::alphatWallFunction;
        Prt             0.85;
        value           nonuniform List<scalar> 9(0.000142431 0.000125724 0.000112093 0.000100954 9.17809e-05 8.41554e-05 7.77749e-05 7.24488e-05 6.81144e-05);
    }
    Table_slave
    {
        type            compressible::alphatWallFunction;
        Prt             0.85;
        value           nonuniform List<scalar> 9(0.000159843 0.000145763 0.000135584 0.000127695 0.000120849 0.000114568 0.000108475 0.000102045 9.45523e-05);
    }
    inlet
    {
        type            fixedValue;
        value           uniform 1.94e-05;
    }
    outlet
    {
        type            zeroGradient;
    }
}


// ************************************************************************* //
