/*--------------------------------*- C++ -*----------------------------------*\
  =========                 |
  \\      /  F ield         | OpenFOAM: The Open Source CFD Toolbox
   \\    /   O peration     | Website:  https://openfoam.org
    \\  /    A nd           | Version:  6
     \\/     M anipulation  |
\*---------------------------------------------------------------------------*/
FoamFile
{
    version     2.0;
    format      ascii;
    class       volScalarField;
    location    "500";
    object      alphat;
}
// * * * * * * * * * * * * * * * * * * * * * * * * * * * * * * * * * * * * * //

dimensions      [1 -1 -1 0 0 0 0];

internalField   nonuniform List<scalar> 
459
(
0.00112643
0.00121772
0.00123012
0.00128675
0.00133857
0.00138617
0.00143142
0.00147668
0.00151714
0.00154325
0.00154865
0.00152763
0.00147838
0.00140736
0.00132843
0.00049262
0.000591035
0.000638321
0.000619564
0.000593997
0.000566689
0.000537058
0.000508441
0.000482245
0.000458586
0.000437239
0.00041805
0.0004007
0.000384798
0.000369867
0.000355182
0.000339657
0.00033456
0.000312948
0.00158712
0.00345644
0.00320047
0.00373201
0.00420789
0.0047005
0.00517331
0.00556704
0.00589029
0.00617392
0.00637033
0.00641436
0.00621156
0.00557072
0.00398297
0.00133234
0.000859254
0.000570049
0.000963507
0.00122329
0.00140868
0.00150492
0.00151307
0.00131589
0.00118572
0.00108379
0.00100018
0.000930201
0.000868744
0.000812871
0.000760391
0.000710527
0.000668298
0.000622953
0.000767715
0.000437702
0.00197838
0.00474109
0.00377498
0.00498086
0.00548794
0.00586398
0.00616147
0.0064085
0.00664989
0.00691348
0.00716496
0.0073536
0.00741779
0.00727795
0.00680835
0.00554707
0.0012806
0.00109323
0.00139086
0.00160731
0.00180098
0.00194651
0.00192366
0.000735963
0.000667151
0.000610483
0.000563585
0.000524418
0.000491383
0.000463314
0.000439449
0.000419412
0.000449637
0.000504684
0.000870628
0.000521695
0.00236392
0.00633616
0.00367175
0.0052428
0.00577103
0.00595062
0.00603979
0.00614795
0.00632644
0.006586
0.00688667
0.0071811
0.00741214
0.00750042
0.00740071
0.00692667
0.00540882
0.00144347
0.00176789
0.00211523
0.00239888
0.00262669
0.00279556
0.0026815
0.000821677
0.000774201
0.00074477
0.000723892
0.000704146
0.00068042
0.000656449
0.000629404
0.000595462
0.000560085
0.00055245
0.00104829
0.00058459
0.00276078
0.00846475
0.00414571
0.00488649
0.00569636
0.0058106
0.00575707
0.00576852
0.00594269
0.00622993
0.00657173
0.00693021
0.00724144
0.0073843
0.00730177
0.0069435
0.00622412
0.00499047
0.00438251
0.00406603
0.00391264
0.00387122
0.00388175
0.00384353
0.00346514
0.00333426
0.00327694
0.00322055
0.00312974
0.00297628
0.00268505
0.00230127
0.00186006
0.00140448
0.0010243
0.00102143
0.000758967
0.000744765
0.000886753
0.000988729
0.00318092
0.0107965
0.00624047
0.00466098
0.00522395
0.00558155
0.00571103
0.00559526
0.00581712
0.0061109
0.00646064
0.00684107
0.00717203
0.00734082
0.00724205
0.00683251
0.00618545
0.00549151
0.00502299
0.00473996
0.00455891
0.00444071
0.00435479
0.00428536
0.00420668
0.00416104
0.00411639
0.00404975
0.00395157
0.00381715
0.00359087
0.00323974
0.00276373
0.00219433
0.00164916
0.00116581
0.000967045
0.000882153
0.0013039
0.00103283
0.00357959
0.01255
0.00959552
0.0065732
0.00569653
0.00562155
0.00584116
0.00591253
0.00602418
0.00622769
0.00654629
0.00693197
0.00727969
0.00745377
0.00732452
0.00683906
0.00611154
0.00544778
0.00507143
0.00484753
0.00461868
0.00439885
0.00423769
0.00414838
0.00410969
0.00409187
0.00406423
0.00401604
0.00394901
0.00387164
0.00378692
0.00356243
0.00316376
0.00264693
0.00213825
0.00163459
0.00134769
0.00129786
0.00138837
0.00115866
0.00366182
0.0115674
0.0101088
0.00908821
0.00810546
0.00741727
0.00695674
0.00653779
0.00636741
0.00648341
0.00680879
0.00721517
0.00755957
0.00769271
0.00747563
0.00686005
0.00600987
0.00534077
0.00493881
0.00454013
0.00419567
0.00396166
0.00382715
0.00375975
0.0037282
0.00370694
0.00368197
0.00365417
0.00363383
0.00363639
0.00367808
0.00372579
0.00344389
0.0030618
0.00272444
0.00257505
0.00277133
0.00344664
0.00448603
0.00183286
0.00356979
0.00426609
0.00482403
0.00506864
0.00523888
0.00529883
0.00538462
0.00564125
0.00610657
0.00669195
0.00727138
0.00773673
0.00800305
0.00797532
0.00754361
0.00671559
0.00579544
0.00502521
0.00437986
0.00390976
0.00362311
0.0034569
0.00335561
0.00328616
0.00322923
0.00317294
0.00311144
0.00304341
0.00296872
0.0028862
0.00279398
0.00269139
0.00260347
0.00254907
0.00255632
0.00261348
0.00263838
0.0025511
0.00238293
0.00169161
0.00220186
0.00447054
0.00557684
0.00630798
0.00704025
0.00771513
0.00822649
0.00852647
0.00862508
0.00854743
0.00831709
0.00790224
0.00723814
0.00628828
0.00529252
0.00439525
0.00377682
0.00343029
0.00323064
0.0030962
0.00299104
0.00290055
0.00281843
0.00274177
0.00266975
0.00260367
0.00254711
0.00250626
0.00248974
0.00250456
0.00253394
0.00257692
0.00262417
0.00264139
0.0025732
0.00239522
0.00212201
0.00136901
0.00266435
0.00595368
0.00763371
0.00799314
0.00841883
0.00881068
0.00883516
0.00846474
0.00794193
0.00722315
0.0065085
0.00589461
0.00532801
0.00467855
0.00401326
0.00347217
0.00310303
0.00286599
0.00269817
0.0025664
0.00245967
0.00237669
0.00231916
0.00228873
0.00228543
0.0023068
0.0023473
0.00239765
0.00246311
0.00254839
0.0026493
0.0027586
0.00286
0.00293714
0.00293901
0.00296738
0.00268905
0.00138533
0.00229534
0.00243096
0.00253039
0.00266
0.00252541
0.00237462
0.00220058
0.00199233
0.0017901
0.00163822
0.00148686
0.00134622
0.0012127
0.00109295
0.000988832
0.000904345
0.000844743
0.000810408
0.000793693
0.000786325
0.000785481
0.000789974
0.000799373
0.000813485
0.000832172
0.000855344
0.000883026
0.000915478
0.000953386
0.0009982
0.00105003
0.00110862
0.00117438
0.00124787
0.00132935
0.00143666
0.00147159
0.00143896
0.00134388
0.00124193
)
;

boundaryField
{
    floor
    {
        type            compressible::alphatWallFunction;
        Prt             0.85;
        value           nonuniform List<scalar> 
29
(
0.00018771
6.80809e-05
8.29999e-05
9.00593e-05
8.72692e-05
8.34481e-05
7.93438e-05
7.4862e-05
7.05041e-05
6.6488e-05
6.28369e-05
5.95222e-05
5.65251e-05
5.38001e-05
5.12891e-05
4.89193e-05
4.65765e-05
4.40859e-05
4.32648e-05
3.97661e-05
3.97655e-05
5.95918e-05
7.25221e-05
8.20327e-05
0.000187708
6.808e-05
7.98177e-05
0.000155307
0.00020331
)
;
    }
    ceiling
    {
        type            compressible::alphatWallFunction;
        Prt             0.85;
        value           nonuniform List<scalar> 
43
(
0.000315116
0.000332465
0.000345122
0.000361681
0.000344678
0.000325481
0.000303147
0.000276163
0.000249661
0.000229543
0.000209288
0.000190261
0.000171986
0.000155399
0.000140807
0.000128834
0.000120309
0.000115368
0.000112953
0.000111887
0.000111765
0.000112416
0.000113776
0.000115814
0.000118507
0.000121837
0.0001258
0.000130428
0.000135809
0.000142139
0.000149418
0.000157597
0.000166719
0.000176843
0.00018799
0.000202554
0.000207269
0.000202866
0.000189971
0.000176032
0.000475103
0.000559644
0.000361915
)
;
    }
    sWall
    {
        type            compressible::alphatWallFunction;
        Prt             0.85;
        value           uniform 0.000313845;
    }
    nWall
    {
        type            compressible::alphatWallFunction;
        Prt             0.85;
        value           nonuniform List<scalar> 6(0.000140456 0.000146654 0.00016418 0.000193041 0.000195253 0.000175684);
    }
    sideWalls
    {
        type            empty;
    }
    glass1
    {
        type            compressible::alphatWallFunction;
        Prt             0.85;
        value           nonuniform List<scalar> 9(0.000155734 0.0002175 0.000268535 0.000317864 0.000367829 0.000419965 0.000468829 0.000478979 0.000468012);
    }
    glass2
    {
        type            compressible::alphatWallFunction;
        Prt             0.85;
        value           nonuniform List<scalar> 2(0.000253246 0.000234754);
    }
    sun
    {
        type            compressible::alphatWallFunction;
        Prt             0.85;
        value           nonuniform List<scalar> 
14
(
0.000159954
0.000172558
0.000174263
0.000182028
0.000189101
0.000195569
0.000201696
0.000207802
0.000213243
0.000216745
0.000217467
0.000214648
0.000208027
0.000198434
)
;
    }
    heatsource1
    {
        type            compressible::alphatWallFunction;
        Prt             0.85;
        value           nonuniform List<scalar> 3(0.000105871 0.000126359 0.000140832);
    }
    heatsource2
    {
        type            compressible::alphatWallFunction;
        Prt             0.85;
        value           nonuniform List<scalar> 4(0.000188402 0.000122395 0.000122393 0.000181327);
    }
    Table_master
    {
        type            compressible::alphatWallFunction;
        Prt             0.85;
        value           nonuniform List<scalar> 9(0.000104583 9.44742e-05 8.60534e-05 7.90116e-05 7.30746e-05 6.80238e-05 6.36985e-05 5.99951e-05 5.68657e-05);
    }
    Table_slave
    {
        type            compressible::alphatWallFunction;
        Prt             0.85;
        value           nonuniform List<scalar> 9(0.00011702 0.000110153 0.000105871 0.000102821 9.99261e-05 9.64348e-05 9.28924e-05 8.88766e-05 8.38066e-05);
    }
    inlet
    {
        type            fixedValue;
        value           uniform 1.94e-05;
    }
    outlet
    {
        type            zeroGradient;
    }
}


// ************************************************************************* //
