/*--------------------------------*- C++ -*----------------------------------*\
  =========                 |
  \\      /  F ield         | OpenFOAM: The Open Source CFD Toolbox
   \\    /   O peration     | Website:  https://openfoam.org
    \\  /    A nd           | Version:  6
     \\/     M anipulation  |
\*---------------------------------------------------------------------------*/
FoamFile
{
    version     2.0;
    format      ascii;
    class       surfaceScalarField;
    location    "500";
    object      phi;
}
// * * * * * * * * * * * * * * * * * * * * * * * * * * * * * * * * * * * * * //

dimensions      [1 0 -1 0 0 0 0];

internalField   nonuniform List<scalar> 
852
(
-0.00292331
0.00298454
-0.00381652
0.000893249
-0.00455895
0.000742469
-0.00518269
0.000623773
-0.00565466
0.000471995
-0.00595401
0.000299377
-0.00605673
0.000102748
-0.00593485
-0.00012185
-0.00556578
-0.000369046
-0.00495655
-0.00060921
-0.00415267
-0.000803854
-0.00322699
-0.000925662
-0.00224938
-0.000977587
-0.00122196
-0.00102739
-0.00121991
-0.000648489
0.000652548
-0.000201755
-0.000446699
0.000446855
-0.000648573
0.000883026
-0.000436136
0.00114716
-0.000264096
0.0013001
-0.000152908
0.00137518
-7.50442e-05
0.00140819
-3.29774e-05
0.00142388
-1.56652e-05
0.00143112
-7.20532e-06
0.0014325
-1.35682e-06
0.00142864
3.89127e-06
0.00141723
1.14395e-05
0.00138989
2.73623e-05
0.00132505
6.48729e-05
0.00118789
0.000137182
0.000972398
0.000215519
0.000746736
0.000225687
0.000752085
-0.00208616
0.00523463
-0.0030214
0.00182853
-0.00381102
0.00153213
-0.00442867
0.00124145
-0.00489003
0.000933383
-0.00518919
0.000598554
-0.00530341
0.000216994
-0.0052025
-0.000222744
-0.00486849
-0.000703041
-0.00431851
-0.00115918
-0.00360866
-0.00151369
-0.00281547
-0.00171884
-0.00202206
-0.00177099
-0.00135389
-0.00169556
-0.00113015
-0.00144362
-0.000308569
-0.000821604
-0.000308566
0.000737511
-7.39602e-05
0.00105982
-0.000768975
0.00119814
-0.00078686
0.00135696
-0.000594916
0.00148328
-0.000390377
0.00155272
-0.000222312
0.0015552
-7.74918e-05
0.00155339
-3.11345e-05
0.00155364
-1.58783e-05
0.00155442
-7.9593e-06
0.00155489
-1.79145e-06
0.00155461
4.20122e-06
0.00155256
1.35171e-05
0.00154505
3.49025e-05
0.00150306
0.000106883
0.0013265
0.000313768
0.00102348
0.000518572
0.000657706
0.000591485
0.00142298
-0.001473
0.006957
-0.00231738
0.00267294
-0.00302484
0.00223961
-0.00355283
0.00176947
-0.00395579
0.00133637
-0.00423053
0.000873308
-0.00434609
0.000332566
-0.00425526
-0.000313553
-0.00393477
-0.00102353
-0.00341766
-0.00167628
-0.00277428
-0.00215706
-0.00208277
-0.00241036
-0.00142025
-0.0024335
-0.000867669
-0.00224814
-0.000464601
-0.00184668
-6.0372e-05
-0.00122582
-0.000368907
0.00133267
-0.00139496
0.00157314
-0.00100941
0.00156374
-0.000777433
0.00157979
-0.000610925
0.00162256
-0.000433112
0.00164697
-0.000246686
0.00156966
0.00153872
0.00152302
0.00151525
0.00151364
0.00151803
0.00153173
0.00156682
0.00167388
0.00137989
0.000607787
0.00102114
0.000877352
0.000577527
0.00103512
0.0020202
-0.00104632
0.00832424
-0.00175429
0.00338095
-0.00221875
0.0027041
-0.00256981
0.00212055
-0.00285112
0.0016177
-0.00305554
0.00107775
-0.00314499
0.000422024
-0.00303806
-0.000420466
-0.00271268
-0.0013489
-0.00223419
-0.00215476
-0.00168585
-0.00270541
-0.00113551
-0.00296069
-0.000634249
-0.00293477
-0.00020902
-0.00267337
0.000163234
-0.00221894
0.000564232
-0.00162682
0.00122884
-0.00103351
0.00199155
-0.000751489
0.00150836
-0.000911756
0.00144377
-0.000944792
0.00142935
-0.000762987
0.00142294
-0.000604481
0.0014517
-0.000461835
0.00151758
-0.00031253
0.00169345
-0.000175992
0.00184039
-0.00014707
0.00197266
-0.000132392
0.00208206
-0.000109515
0.0021482
-6.62705e-05
0.00214357
4.50648e-06
0.00204159
0.000101865
0.00181193
0.000229536
0.00140169
0.000410107
0.00122313
0.000786383
0.000866732
0.00123377
0.000315411
0.00158647
0.00236118
-0.000747307
0.00945235
-0.00132079
0.00395448
-0.00141448
0.00279783
-0.00151117
0.00221726
-0.00160824
0.00171481
-0.00168043
0.00114996
-0.00168896
0.000430569
-0.00150974
-0.000599666
-0.00117034
-0.00168827
-0.000766758
-0.00255834
-0.000371442
-0.00310072
-2.43702e-05
-0.00330777
0.000255736
-0.00321489
0.000470588
-0.00288823
0.000654041
-0.0024024
0.00086222
-0.001835
0.00113281
-0.0013041
0.0013396
-0.000958264
0.00129248
-0.000864627
0.00116449
-0.000816775
0.001095
-0.000693477
0.00106358
-0.000573032
0.00107326
-0.000471485
0.0011367
-0.000375935
0.00126559
-0.000304855
0.00139481
-0.000276261
0.00152102
-0.000258565
0.00163589
-0.000224365
0.00172366
-0.000154011
0.00176028
-3.20804e-05
0.00172333
0.00013884
0.00160514
0.000347761
0.00141264
0.000602633
0.00122866
0.000970395
0.00101671
0.00144576
0.000553828
0.00204938
0.000322171
0.00259286
-0.00117677
0.00149876
-0.00162777
0.000450816
-0.00157326
-0.000663701
0.0105468
-0.00109656
0.00438737
-0.000682686
0.00238399
-0.00040575
0.00194036
-0.000267598
0.00157668
-0.000163672
0.00104606
2.45947e-05
0.000242334
0.00033879
-0.000913834
0.000663721
-0.00201319
0.000924923
-0.00281953
0.00109312
-0.00326891
0.00116674
-0.00338139
0.0011661
-0.00321426
0.0011187
-0.00284085
0.00105546
-0.00233917
0.00101174
-0.00179129
0.000997236
-0.00128961
0.000969533
-0.000930556
0.000865253
-0.000760335
0.000722047
-0.00067355
0.000622853
-0.000594259
0.000576153
-0.000526304
0.000578411
-0.000473716
0.000632216
-0.000429711
0.000728108
-0.000400719
0.000841127
-0.00038925
0.000961006
-0.000378415
0.00108253
-0.000345855
0.00119775
-0.000269203
0.00129079
-0.000125089
0.00133778
9.1873e-05
0.00133856
0.000347014
0.00130871
0.000632504
0.00130078
0.000978359
0.00136745
0.00137912
0.00151538
0.00190147
0.00197126
0.00213701
0.0022246
0.00124545
0.00183822
0.00083722
0.000330356
-0.000791341
0.0118132
-0.000742276
0.00433835
0.000358661
0.0012831
0.000987054
0.00131201
0.0013265
0.00123728
0.00165851
0.000714099
0.00208756
-0.000186677
0.00247286
-0.0012991
0.00268846
-0.00222877
0.00271839
-0.00284945
0.00258545
-0.00313596
0.00232895
-0.0031249
0.00199694
-0.00288226
0.00163588
-0.0024798
0.00128491
-0.00198822
0.00097506
-0.00148146
0.000719458
-0.00103401
0.000513011
-0.000724106
0.000329227
-0.000576537
0.000175002
-0.000519303
6.98536e-05
-0.000489086
1.43277e-05
-0.000470751
1.67968e-06
-0.00046104
2.85134e-05
-0.000456517
8.60903e-05
-0.000458268
0.000161873
-0.000465005
0.000249505
-0.000466019
0.000350069
-0.000446391
0.000468865
-0.00038797
0.000610027
-0.000266222
0.000752186
-5.02563e-05
0.000881895
0.000217334
0.00101358
0.000500851
0.00119546
0.000796503
0.00148174
0.00109287
0.00194856
0.00143468
0.00266671
0.00141889
0.00324245
0.00066973
0.00332142
0.000758275
0.00372321
0.00255939
0.00978421
0.00318711
0.00371067
0.00347197
0.000998272
0.0037612
0.00102282
0.00401224
0.000986286
0.00440125
0.000325134
0.0048282
-0.000613593
0.00499587
-0.00146674
0.00486489
-0.00209778
0.00447599
-0.00246054
0.00390169
-0.00256167
0.00322066
-0.00244388
0.00250517
-0.00216678
0.00181236
-0.00178701
0.00118291
-0.00135878
0.000647691
-0.000946242
0.000222032
-0.000608353
-7.74543e-05
-0.000424612
-0.000281473
-0.000372501
-0.000423773
-0.00037698
-0.000523505
-0.000389328
-0.000591067
-0.000403163
-0.000633544
-0.000418536
-0.000654894
-0.000435139
-0.000660096
-0.000453038
-0.000655074
-0.000469999
-0.000641921
-0.000479144
-0.000617214
-0.000471069
-0.000569923
-0.000435233
-0.000476281
-0.000359835
-0.000297296
-0.000229212
-7.3107e-05
-6.82589e-06
0.000167653
0.00026012
0.000458829
0.000505356
0.000812461
0.000739264
0.00128395
0.000963221
0.00177657
0.000926289
0.00190876
0.00053757
0.00103186
0.0016352
0.00505047
0.0103692
0.0140749
0.0128378
0.00223535
0.0115916
0.00226905
0.0106627
0.00191525
0.00991121
0.00107663
0.00903952
0.000258106
0.007995
-0.000422238
0.00683638
-0.000939174
0.00563712
-0.00126131
0.00444567
-0.00137024
0.00330491
-0.00130315
0.00225576
-0.00111764
0.00132817
-0.000859436
0.000537629
-0.000568245
-8.3208e-05
-0.000325408
-0.000500709
-0.000190846
-0.000743495
-0.00018181
-0.000900345
-0.000215628
-0.00102256
-0.000254738
-0.0011262
-0.000285661
-0.00121913
-0.000310212
-0.00130638
-0.000331256
-0.00139151
-0.000349982
-0.0014785
-0.000366023
-0.00157208
-0.000376387
-0.0016768
-0.000374403
-0.00179789
-0.000349947
-0.00194295
-0.000290151
-0.00212285
-0.000179908
-0.00235063
-1.40259e-06
-0.00260437
0.000246948
-0.00292227
0.000578045
-0.00342556
0.00100867
-0.00421689
0.00153062
-0.00534971
0.00209606
-0.00692981
0.00250641
-0.00880144
0.00240922
-0.00817568
0.00100947
-0.00279651
0.00443375
0.00387243
0.00420883
0.00249382
0.00520223
0.000921694
0.00538256
0.000896157
0.00507957
0.000560955
0.00457684
8.03945e-05
0.00391941
-0.000281811
0.00315024
-0.000492192
0.00229928
-0.000519302
0.00142557
-0.000429452
0.000590331
-0.000282406
-0.000140346
-0.000128757
-0.000693648
-1.49404e-05
-0.00104329
2.42441e-05
-0.00124166
7.53604e-06
-0.00137063
-5.28176e-05
-0.00147102
-0.000115216
-0.00156809
-0.000157639
-0.0016704
-0.000183321
-0.00178117
-0.000199414
-0.00190232
-0.000210082
-0.00203543
-0.000216841
-0.00218209
-0.000219341
-0.00234309
-0.000215355
-0.00251691
-0.000200563
-0.00269833
-0.000168493
-0.00287738
-0.000111082
-0.00303598
-2.12798e-05
-0.00315686
0.000119504
-0.00324723
0.000337343
-0.00332453
0.000655378
-0.00340565
0.00108981
-0.00349857
0.00162357
-0.00354666
0.00214417
-0.00346053
0.00242031
-0.00304688
0.0019956
-0.0017147
-0.00032268
-0.00442508
-0.0008073
0.00475342
0.000274345
0.00141205
0.000451254
0.000744688
0.000708351
0.000638979
0.000832977
0.000436263
0.000732457
0.000180867
0.000454153
-3.53996e-06
2.18312e-06
-4.024e-05
-0.000541699
2.45888e-05
-0.00104707
7.59199e-05
-0.00143979
0.000110319
-0.00169094
0.000122401
-0.00181269
0.000106816
-0.00185296
6.45356e-05
-0.0018677
2.22993e-05
-0.00189201
-2.84821e-05
-0.00193732
-6.98805e-05
-0.00200177
-9.31631e-05
-0.00208099
-0.000104073
-0.00217149
-0.000108895
-0.00227095
-0.000110589
-0.00237772
-0.000110046
-0.00249012
-0.000106914
-0.00260571
-9.97417e-05
-0.00272024
-8.60025e-05
-0.00282659
-6.21202e-05
-0.00291463
-2.3016e-05
-0.00297073
3.48487e-05
-0.00296756
0.000116363
-0.00287587
0.000245675
-0.00266042
0.000439955
-0.0022943
0.000723717
-0.00178281
0.0011121
-0.00111471
0.0014761
-6.90623e-05
0.00137469
0.00127848
0.000648084
0.00160666
-0.000650836
-0.00272361
-0.00797219
-0.0110681
-0.0062588
-0.00481529
-0.00404716
-0.00338853
-0.00293536
-0.00273973
-0.00273005
-0.00275811
-0.00272201
-0.00263487
-0.00251334
-0.00237952
-0.00226092
-0.00218415
-0.00214923
-0.00216487
-0.00222181
-0.00230202
-0.0023932
-0.00248931
-0.00258726
-0.00268486
-0.00277956
-0.00286736
-0.00294171
-0.0029925
-0.00300454
-0.00295908
-0.00283252
-0.00257707
-0.0021278
-0.00139524
-0.000274796
0.00120895
0.00259095
0.00324634
0.00260314
)
;

boundaryField
{
    floor
    {
        type            calculated;
        value           nonuniform List<scalar> 
29
(
0
0
0
0
0
0
0
0
0
0
0
0
0
0
0
0
0
0
0
0
-5.32338e-06
-1.31649e-05
-1.96674e-05
-2.55378e-05
-2.0278e-06
-4.02406e-06
-1.09731e-05
-1.16407e-05
-1.12031e-05
)
;
    }
    ceiling
    {
        type            calculated;
        value           nonuniform List<scalar> 
43
(
-5.97892e-05
-5.76625e-05
-5.58863e-05
-3.14707e-05
-2.34596e-05
-1.96559e-05
-1.69228e-05
-1.47817e-05
-1.32356e-05
-1.21758e-05
-1.1508e-05
-1.12044e-05
-1.11926e-05
-1.13994e-05
-1.17681e-05
-1.221e-05
-1.25927e-05
-1.28231e-05
-1.29141e-05
-1.29223e-05
-1.28689e-05
-1.27638e-05
-1.2612e-05
-1.24175e-05
-1.2185e-05
-1.19193e-05
-1.16247e-05
-1.1304e-05
-1.09573e-05
-1.05796e-05
-1.01739e-05
-9.74505e-06
-9.29356e-06
-8.81797e-06
-8.3138e-06
-7.61948e-06
-7.28487e-06
-7.28133e-06
-7.61531e-06
-7.3484e-06
7.69707e-06
4.97499e-06
-7.37796e-05
)
;
    }
    sWall
    {
        type            calculated;
        value           uniform -0.00028141;
    }
    nWall
    {
        type            calculated;
        value           nonuniform List<scalar> 6(-5.4684e-05 -6.53732e-05 -7.14069e-05 -8.6108e-05 -9.47907e-05 -0.000113088);
    }
    sideWalls
    {
        type            empty;
        value           nonuniform 0();
    }
    glass1
    {
        type            calculated;
        value           nonuniform List<scalar> 9(-6.11936e-05 -0.000163903 -0.000249338 -0.000320904 -0.000380776 -0.000430735 -0.000475052 -0.000530353 -0.000592639);
    }
    glass2
    {
        type            calculated;
        value           nonuniform List<scalar> 2(-0.000295368 -0.000328685);
    }
    sun
    {
        type            calculated;
        value           uniform 0;
    }
    heatsource1
    {
        type            calculated;
        value           nonuniform List<scalar> 3(2.05054e-07 2.0493e-07 2.04944e-07);
    }
    heatsource2
    {
        type            calculated;
        value           nonuniform List<scalar> 4(5.12863e-08 5.14396e-08 0 0);
    }
    Table_master
    {
        type            calculated;
        value           nonuniform List<scalar> 9(-1.53777e-07 -1.53836e-07 -1.5386e-07 -1.53877e-07 -1.53891e-07 -1.539e-07 -1.53905e-07 -1.53902e-07 -1.53873e-07);
    }
    Table_slave
    {
        type            calculated;
        value           nonuniform List<scalar> 9(1.5368e-07 1.53667e-07 1.53628e-07 1.53596e-07 1.53579e-07 1.53586e-07 1.53597e-07 1.53642e-07 1.53733e-07);
    }
    inlet
    {
        type            calculated;
        value           uniform -0.00607092;
    }
    outlet
    {
        type            calculated;
        value           nonuniform List<scalar> 2(0.00831336 0.00315352);
    }
}


// ************************************************************************* //
