/*--------------------------------*- C++ -*----------------------------------*=========                 |
  \      /  F ield         | OpenFOAM: The Open Source CFD Toolbox
   \    /   O peration     | Website:  https://openfoam.org
    \  /    A nd           | Version:  6
     \/     M anipulation  |
\*---------------------------------------------------------------------------*/
FoamFile
{
    version     2.0;
    format      ascii;
    class       volScalarField;
    location    "500";
    object      PPD;
}
// * * * * * * * * * * * * * * * * * * * * * * * * * * * * * * * * * * * * * //

dimensions      [0 0 0 0 0 0 0];

internalField   nonuniform List<scalar> 
459
(
63.923572301394756
52.92028442327645
51.88158369014914
50.744780756784614
49.89818677709161
49.31975873489659
48.970640750938216
48.90204828505641
49.08929598862059
49.53969571446381
50.328728447998024
51.54443170343213
53.3094514991004
55.38884942692
56.127768047306816
58.74724166012911
58.33336217308799
58.20392753780309
58.152141296606324
58.100348107982136
58.07444893565308
58.021310515824624
57.793074399018764
57.72170229411875
57.66895683411577
57.65805991888246
57.63827130159005
57.66789057865555
57.71787595147287
57.89369475959593
57.919018496410104
57.919018496410104
57.919018496410104
58.359243704111535
62.641251642431115
53.80504273145905
53.76156501312969
52.71451599142395
52.06348374522761
51.61839240290361
51.39697752248522
51.33978134783602
51.47287255051744
51.693380569976554
52.07756620637206
52.69235737798601
53.64761271301104
54.838478887159766
55.913081632120345
57.06315964291211
56.361857356140064
55.43036167574056
58.33336217308799
58.152141296606324
58.07444893565308
57.532721607657024
57.12897572734848
56.926496995249906
56.81738986792537
56.720086506582206
56.59863354409647
56.465273230442754
56.35936207030298
56.2592038776493
56.16776717671346
56.17733340174884
56.43494663947965
56.90738778119334
56.95931670857195
55.876934719933146
65.5071705908083
53.708200076829385
55.44454928678216
54.86457425334084
54.73544091946989
54.663270171850456
54.657828325135256
54.72304338275702
54.80058758626258
54.67634097000556
54.34250692215293
54.053005681124475
54.083212163513885
54.62916508516223
55.863754721112365
57.40050418360023
57.21888543983909
53.21170991753993
56.08463748658707
56.87305340079483
56.97620401685685
57.00466575760436
56.96393621732634
56.89438596443664
56.96981452537156
56.958225954942804
56.86393039901352
56.695209168449836
56.533594095810855
56.37492859409632
56.12725859345884
55.73865006525255
55.69349621791383
56.49490811577716
55.66190208793004
52.67635094503536
69.80644394450401
53.8027269055575
56.679508017347906
56.87943208130012
57.59234860565327
58.21263158377324
58.75036806009263
59.126371765099634
59.103570260600904
58.23036574841888
56.71355491642691
55.12513272095327
54.05464378231683
53.927161512013
54.87679349422944
56.91941445788064
57.58205330239332
56.90007786912443
55.597242506157556
56.6350316049954
57.506259347473915
57.91409115176914
58.08275292000316
58.08528836879775
57.700357352147314
57.1136097090604
56.609214263384914
56.19204351032769
55.893527965302
55.72692588472114
55.78976313737106
56.20014315459286
57.158675114268135
57.19418905723711
56.775841928553774
54.35734224643918
50.23630817860657
74.40142836930205
54.75607202724776
57.75623817986797
58.60707266424455
60.31442816666565
62.080054453243086
63.68714251586565
64.76423931351346
63.85605980388492
61.25091701635921
58.16754030303961
55.37790710809988
53.4998340824403
52.9812025729024
53.690675144966285
55.24396493572867
56.791543770816524
57.18645631942983
57.07834070086505
57.9036904100553
58.98582825877289
59.18642998458175
59.289679110293285
59.34129041286766
59.392892758683544
59.386923911230646
58.8667780354343
58.39167641887712
57.981903205387205
57.642241772645335
57.440081347473566
57.427853238079734
57.54426958209715
57.101756626201535
56.172134811422644
53.12490903040923
52.97843998391675
59.315485875712305
58.00560488198906
49.398713446799
78.51766491920552
56.86338164487908
60.0263595314362
60.440331143258604
62.468076878901286
65.21974344603125
66.41389316844206
67.81616320285698
65.42333176716588
61.602729572682655
57.78955597966581
54.60831389373652
52.584547245385075
52.00209742602273
52.778870082918274
54.51670343686534
56.56367615139935
58.17155018723088
58.876476736917866
59.289679110293285
59.59921082577709
59.77961603059256
59.90840436024977
59.95990241122094
59.98564768994344
60.011390456253324
59.98564768994344
59.93415463101504
59.83113871391095
59.67654165158821
59.47027929223823
58.95826547209986
58.328327042698916
57.22004512792905
55.80484759623745
52.76536412447015
52.89233923195872
53.5084534335416
53.23366575925939
53.589570733580814
81.96706815631629
61.81054128983803
67.44639868409368
64.77141136140133
64.38547362686798
65.53849620503965
66.53539350608023
65.37074768953059
62.9765136984372
59.531446888245696
55.7749060986644
52.702405723943336
51.04537946560328
51.000346730404324
52.39211087164518
54.80009468097096
57.65374819763049
58.90231766842313
59.54764518129408
59.95990241122094
60.24296049142893
60.397223030936516
60.50001112504641
60.55138883028584
60.55138883028584
60.55138883028584
60.525701348586054
60.44862249613863
60.3201037062332
60.1143361788067
59.83113871391095
59.47027929223823
59.134792336283745
58.31262188368889
56.4498719165119
53.64990431717664
52.693298829480206
52.092569992253814
50.631921156244616
55.23966325924666
86.73356082908364
77.76733743136826
75.88944094063046
70.59927833808617
68.12442102771367
66.79587162875654
65.49726547756873
63.29441666023231
59.77886535419382
55.53597935272666
51.77681283882819
49.42844894057899
48.971832304119275
50.302745500567525
53.06179669679544
56.705292531535505
58.66967667185249
59.67654165158821
60.3201037062332
60.654111120286295
60.859420772579256
60.962006737594606
61.038915511672386
61.06454586394897
61.09017324517192
61.06454586394897
61.01328219924877
60.936364610188356
60.808110443810776
60.62843471514528
60.3458128168233
59.95990241122094
59.59921082577709
59.263870127545836
58.90231766842313
58.322214013880995
57.16657199556386
56.556298931039876
53.332128103342384
48.96025054463369
92.17621359374048
88.31966382452305
82.2190184326553
75.67870562554486
70.44918827248358
66.4856406443013
62.934428929951544
57.76044755491908
51.81428606951327
47.15158967024475
44.898510058288366
45.15254727463391
47.507565632438144
51.478714344758124
56.38784565738591
58.2298180258442
59.77961603059256
60.6027555244853
61.01328219924877
61.24387452955609
61.397466107903924
61.474220021539075
61.523064267188005
61.201731591710406
60.89680434140576
60.56864766789079
60.207798309205764
59.80785728964474
59.38085661452159
58.89533896531083
58.32735113805743
57.74678551034276
57.22882407552443
56.58685493884702
55.791010006105225
55.085442309813615
54.57025396116002
54.27254924356224
53.66516514540678
51.932892900278986
97.1568957431806
16.077912090288663
5.162078862148988
10.250944264738777
15.234238157962096
19.807377671393724
25.13640018401324
31.2677996372729
38.131216261463706
45.338445199165164
51.886372195442675
55.42570532018457
58.33336217308799
59.93415463101504
60.859420772579256
61.30113330108469
61.092003334947016
60.86155807780464
60.59913888562819
60.309552049282274
60.010625636007454
59.69920231656825
59.34707995062312
58.97988140461422
58.602744145056064
58.253671693482026
57.89677935248356
57.6060355470219
57.429686066764525
57.307944614943786
57.27361990598509
57.3019614691763
57.33638027206753
57.47025894881424
58.01499328699842
59.872549871344056
63.50796844099985
54.815848035486404
81.1918972698945
10.75277885685152
7.192140557997533
15.732019894774282
23.3095219267704
29.95075953078387
36.24038445784601
42.48317964664818
48.95618696410657
53.707850258549
56.75494911514071
57.49947104885625
58.17893044774045
58.674898866187526
59.0071499728458
59.27258011332316
59.41478245085046
59.425176232195696
59.34933929573071
59.26440770221502
59.10616662370684
58.95913402478167
58.80097036917218
58.63526983207968
58.46886339914991
58.312714801363896
58.20914238762754
58.1305191788563
58.16962810608705
58.37392979506158
58.81515136246029
59.48728437402253
60.20250632519101
60.784879978504804
61.404087601065505
63.40983486354983
59.83909970145364
56.983283732663025
21.47470002687855
26.851873155321584
22.22056846691578
6.524404231549937
16.763780601921965
26.207503116685373
34.43845023587912
41.31426533364682
46.436269057388856
49.85468280233896
52.41790181439937
54.253640820141285
55.538851161744475
56.34337388239129
56.71840576692028
56.781984397376284
56.712475332542176
56.66011899094223
56.640843474093955
56.65766927739618
56.67295871023238
56.70863573064404
56.76170420846185
56.829739495956545
56.88398100508868
56.98065642316877
57.07182424079003
57.22684483358956
57.41539882721904
57.72821066765381
58.174604206668505
58.863379747771354
60.08544061990643
62.21405741586614
64.03988489666045
64.41750570293024
62.712363228819136
60.27114536833473
57.86739901267728
58.08116557616163
)
;

boundaryField
{
    ".*"
    {
        type            zeroGradient;
    }
}


// ************************************************************************* //
