// -*- C++ -*-
// File generated by PyFoam - sorry for the ugliness

FoamFile
{
 version 2.0;
 format ascii;
 class volScalarField;
 location "500";
 object T;
}

dimensions [ 0 0 0 1 0 0 0 ];

internalField nonuniform List<scalar> 459
(
  302.89
  302.606
  302.595
  302.594
  302.592
  302.59
  302.587
  302.584
  302.579
  302.571
  302.561
  302.55
  302.54
  302.532
  302.528
  302.569
  302.553
  302.548
  302.546
  302.544
  302.543
  302.542
  302.541
  302.541
  302.54
  302.54
  302.539
  302.539
  302.538
  302.538
  302.537
  302.537
  302.537
  302.554
  303.09
  302.645
  302.622
  302.627
  302.632
  302.635
  302.637
  302.635
  302.629
  302.615
  302.595
  302.571
  302.548
  302.53
  302.516
  302.504
  302.477
  302.571
  302.553
  302.546
  302.543
  302.54
  302.536
  302.532
  302.527
  302.522
  302.517
  302.512
  302.508
  302.504
  302.5
  302.498
  302.497
  302.498
  302.5
  302.533
  303.295
  302.694
  302.652
  302.664
  302.68
  302.693
  302.702
  302.705
  302.699
  302.678
  302.642
  302.6
  302.562
  302.536
  302.522
  302.517
  302.51
  302.549
  302.548
  302.549
  302.55
  302.55
  302.548
  302.542
  302.535
  302.528
  302.522
  302.515
  302.509
  302.504
  302.498
  302.493
  302.491
  302.488
  302.489
  302.524
  303.498
  302.756
  302.682
  302.698
  302.725
  302.751
  302.774
  302.787
  302.783
  302.751
  302.695
  302.63
  302.573
  302.537
  302.521
  302.52
  302.524
  302.536
  302.543
  302.552
  302.559
  302.565
  302.567
  302.568
  302.568
  302.568
  302.568
  302.567
  302.566
  302.564
  302.561
  302.558
  302.553
  302.529
  302.507
  302.494
  302.524
  303.692
  302.837
  302.717
  302.724
  302.757
  302.795
  302.835
  302.866
  302.865
  302.818
  302.739
  302.651
  302.576
  302.532
  302.516
  302.518
  302.529
  302.542
  302.556
  302.568
  302.579
  302.586
  302.59
  302.592
  302.594
  302.594
  302.594
  302.593
  302.591
  302.587
  302.581
  302.574
  302.565
  302.547
  302.523
  302.502
  302.517
  302.591
  302.624
  302.634
  303.863
  302.942
  302.785
  302.76
  302.784
  302.823
  302.871
  302.928
  302.923
  302.858
  302.756
  302.652
  302.569
  302.52
  302.505
  302.514
  302.534
  302.555
  302.574
  302.59
  302.602
  302.609
  302.614
  302.616
  302.617
  302.618
  302.617
  302.615
  302.611
  302.605
  302.597
  302.587
  302.575
  302.558
  302.536
  302.514
  302.513
  302.544
  302.557
  302.594
  304.01
  303.116
  302.958
  302.897
  302.886
  302.902
  302.944
  302.98
  302.951
  302.859
  302.736
  302.619
  302.535
  302.493
  302.489
  302.511
  302.544
  302.575
  302.6
  302.616
  302.627
  302.633
  302.637
  302.639
  302.639
  302.639
  302.638
  302.635
  302.63
  302.622
  302.611
  302.597
  302.584
  302.568
  302.548
  302.528
  302.52
  302.528
  302.538
  302.569
  304.237
  303.574
  303.402
  303.271
  303.18
  303.133
  303.116
  303.061
  302.946
  302.793
  302.643
  302.527
  302.463
  302.449
  302.473
  302.517
  302.566
  302.605
  302.63
  302.643
  302.651
  302.655
  302.658
  302.659
  302.66
  302.659
  302.657
  302.654
  302.649
  302.642
  302.631
  302.616
  302.602
  302.589
  302.575
  302.56
  302.558
  302.576
  302.603
  302.761
  304.56
  304.259
  303.951
  303.683
  303.475
  303.316
  303.175
  302.976
  302.743
  302.541
  302.409
  302.353
  302.359
  302.408
  302.478
  302.549
  302.609
  302.641
  302.657
  302.666
  302.672
  302.675
  302.678
  302.679
  302.68
  302.68
  302.679
  302.677
  302.675
  302.673
  302.672
  302.676
  302.681
  302.695
  302.717
  302.75
  302.793
  302.835
  302.861
  302.924
  294.441
  297.975
  299.921
  300.706
  301.054
  301.3
  301.532
  301.752
  301.961
  302.146
  302.305
  302.441
  302.553
  302.615
  302.651
  302.671
  302.681
  302.687
  302.691
  302.694
  302.697
  302.7
  302.702
  302.704
  302.706
  302.709
  302.711
  302.714
  302.719
  302.723
  302.731
  302.745
  302.765
  302.791
  302.82
  302.846
  302.862
  302.877
  295.469
  298.236
  299.811
  300.625
  301.078
  301.405
  301.682
  301.938
  302.192
  302.375
  302.501
  302.585
  302.639
  302.669
  302.686
  302.696
  302.702
  302.706
  302.709
  302.713
  302.715
  302.718
  302.721
  302.724
  302.727
  302.73
  302.734
  302.737
  302.741
  302.746
  302.753
  302.763
  302.777
  302.795
  302.815
  302.835
  302.829
  302.858
  298.273
  298.196
  298.19
  300.275
  301.119
  301.548
  301.869
  302.131
  302.325
  302.451
  302.545
  302.61
  302.656
  302.687
  302.707
  302.72
  302.728
  302.733
  302.736
  302.739
  302.741
  302.743
  302.745
  302.747
  302.748
  302.75
  302.751
  302.753
  302.754
  302.756
  302.758
  302.76
  302.764
  302.769
  302.776
  302.791
  302.802
  302.808
  302.81
  302.847
)
;

boundaryField
{
  floor
  {
    type wallHeatTransfer;
    Tinf uniform 305.2;
    alphaWall uniform 0.24;
    value nonuniform List<scalar> 29
(
  302.798
  303.105
  303.032
  303.003
  303.011
  303.023
  303.037
  303.054
  303.072
  303.09
  303.107
  303.124
  303.14
  303.156
  303.171
  303.185
  303.201
  303.218
  303.224
  303.263
  303.263
  303.119
  303.05
  303.011
  302.798
  303.105
  303.058
  302.86
  302.789
)
;
  }
  ceiling
  {
    type wallHeatTransfer;
    Tinf uniform 303.2;
    alphaWall uniform 0.24;
    value nonuniform List<scalar> 43
(
  298.597
  298.51
  298.494
  300.446
  301.246
  301.654
  301.959
  302.21
  302.395
  302.516
  302.606
  302.669
  302.715
  302.747
  302.769
  302.784
  302.794
  302.801
  302.805
  302.807
  302.809
  302.811
  302.812
  302.812
  302.813
  302.813
  302.813
  302.812
  302.812
  302.811
  302.811
  302.811
  302.812
  302.815
  302.819
  302.83
  302.839
  302.845
  302.849
  302.884
  304.498
  304.217
  295.919
)
;
  }
  sWall
  {
    type wallHeatTransfer;
    Tinf uniform 315.2;
    alphaWall uniform 0.36;
    value uniform 299.896;
  }
  nWall
  {
    type wallHeatTransfer;
    Tinf uniform 307.2;
    alphaWall uniform 0.36;
    value nonuniform List<scalar> 6
(
  303.447
  303.39
  303.307
  303.488
  303.466
  303.507
)
;
  }
  sideWalls
  {
    type empty;
  }
  glass1
  {
    type wallHeatTransfer;
    Tinf uniform 315.2;
    alphaWall uniform 4.3;
    value nonuniform List<scalar> 9
(
  311.547
  310.825
  310.363
  310.003
  309.701
  309.43
  309.215
  309.281
  309.513
)
;
  }
  glass2
  {
    type wallHeatTransfer;
    Tinf uniform 307.2;
    alphaWall uniform 4.3;
    value nonuniform List<scalar> 2
(
  305.453
  305.587
)
;
  }
  sun
  {
    type wallHeatTransfer;
    Tinf uniform 305.2;
    alphaWall uniform 0.24;
    value nonuniform List<scalar> 14
(
  303.155
  302.886
  302.874
  302.863
  302.854
  302.845
  302.836
  302.827
  302.818
  302.808
  302.798
  302.791
  302.787
  302.79
)
;
  }
  heatsource1
  {
    type fixedGradient;
    gradient uniform 0;
  }
  heatsource2
  {
    type fixedGradient;
    gradient uniform 0;
  }
  Table_master
  {
    type zeroGradient;
  }
  Table_slave
  {
    type zeroGradient;
  }
  inlet
  {
    type fixedValue;
    value uniform 290.15;
  }
  outlet
  {
    type zeroGradient;
  }
} 	// ************************************************************************* //

