/*--------------------------------*- C++ -*----------------------------------*\
  =========                 |
  \\      /  F ield         | OpenFOAM: The Open Source CFD Toolbox
   \\    /   O peration     | Website:  https://openfoam.org
    \\  /    A nd           | Version:  6
     \\/     M anipulation  |
\*---------------------------------------------------------------------------*/
FoamFile
{
    version     2.0;
    format      ascii;
    class       surfaceScalarField;
    location    "2900";
    object      phi;
}
// * * * * * * * * * * * * * * * * * * * * * * * * * * * * * * * * * * * * * //

dimensions      [1 0 -1 0 0 0 0];

internalField   nonuniform List<scalar> 
852
(
-0.003041
0.0031008
-0.00412269
0.0010817
-0.00492596
0.000803262
-0.00553879
0.000612833
-0.00592946
0.000390669
-0.00607421
0.000144755
-0.00595209
-0.000122127
-0.00555275
-0.000399338
-0.00490252
-0.00065023
-0.00406678
-0.000835737
-0.00313624
-0.000930544
-0.00220697
-0.000929263
-0.00136386
-0.00084311
-0.00064578
-0.000718085
-0.000643717
-0.000809789
0.000813498
-0.000478203
-0.000331586
0.000188208
-0.000666411
0.000717622
-0.000529414
0.00107202
-0.000354398
0.00129416
-0.000222136
0.00141527
-0.000121116
0.00147484
-5.95715e-05
0.00150831
-3.34656e-05
0.00152878
-2.04695e-05
0.00154018
-1.14068e-05
0.00154418
-3.99252e-06
0.00153923
4.94435e-06
0.00151701
2.2226e-05
0.00145506
6.19445e-05
0.0013156
0.000139459
0.00108638
0.000229224
0.000803676
0.000282703
0.000808714
-0.00216459
0.00542606
-0.00321022
0.00212733
-0.00403168
0.00162472
-0.00463313
0.00121429
-0.00501646
0.000773998
-0.00516654
0.000294832
-0.00505982
-0.000228847
-0.00469247
-0.000766688
-0.00410301
-0.00123968
-0.00336329
-0.00157547
-0.00255985
-0.00173398
-0.00177286
-0.00171626
-0.00107369
-0.00154228
-0.000538757
-0.00125302
-0.000310899
-0.000871575
5.04147e-05
-0.000361365
5.03632e-05
0.000370191
0.000453978
0.000799356
-0.000760752
0.00106314
-0.000930192
0.00129062
-0.000756893
0.00146465
-0.000528434
0.00156911
-0.000326594
0.00158606
-0.000138061
0.00159026
-6.37791e-05
0.00159531
-3.85151e-05
0.00159959
-2.47457e-05
0.00160237
-1.41826e-05
0.00160369
-5.31254e-06
0.00160282
5.81155e-06
0.0015961
2.89434e-05
0.0015541
0.000103948
0.00137445
0.000319108
0.0010662
0.00053747
0.000684904
0.000664001
0.00150637
-0.00151046
0.00718199
-0.00240873
0.0030256
-0.0031322
0.00234819
-0.00364195
0.00172404
-0.00396927
0.00110132
-0.00409319
0.000418743
-0.00397007
-0.000351962
-0.00359955
-0.0011372
-0.00304389
-0.00179535
-0.00238387
-0.00223549
-0.00169914
-0.0024187
-0.00104723
-0.00236817
-0.000475268
-0.00211424
-1.94578e-05
-0.00170883
0.000282267
-0.0011733
0.000437031
-0.000516129
0.000487394
0.00160062
-0.00113527
0.0018282
-0.000988335
0.00177949
-0.000881477
0.00176414
-0.000741545
0.00178271
-0.000547001
0.00180129
-0.000345174
0.00166338
0.00159976
0.00156139
0.0015368
0.00152277
0.00151761
0.00152358
0.00155268
0.00165678
0.00135859
0.000617294
0.00100193
0.000894135
0.000571738
0.00109419
0.00209733
-0.00104998
0.00854964
-0.00175822
0.00373384
-0.00222914
0.0028191
-0.00255284
0.00204775
-0.00274995
0.00129843
-0.00277895
0.000447737
-0.00257513
-0.000555779
-0.00217012
-0.00154221
-0.00165675
-0.00230872
-0.00111108
-0.00278116
-0.000590665
-0.00293912
-0.000120318
-0.00283852
0.000286253
-0.00252081
0.000627686
-0.00205026
0.000939189
-0.0014848
0.00130821
-0.00088515
0.00216406
-0.000368455
0.002611
-0.000436686
0.00218616
-0.000710433
0.0020417
-0.000843874
0.00191514
-0.000754919
0.00180464
-0.000631046
0.00174087
-0.000483235
0.00170673
-0.000311032
0.00183444
-0.000127863
0.00191212
-7.78319e-05
0.00197246
-6.04934e-05
0.002016
-4.36888e-05
0.00202765
-1.18077e-05
0.00198605
4.14476e-05
0.00186671
0.000119182
0.00163756
0.000229002
0.00124362
0.00039378
0.0011
0.000760916
0.000785231
0.00120891
0.000301645
0.00157778
0.00242409
-0.000732101
0.00966074
-0.00126625
0.00426799
-0.00134939
0.00290224
-0.00138465
0.002083
-0.00136512
0.00127891
-0.00118174
0.000264357
-0.000813152
-0.000924372
-0.000375428
-0.00197993
4.3735e-05
-0.00272788
0.000399402
-0.00313683
0.000681086
-0.0032208
0.000894337
-0.00305177
0.00106142
-0.00268789
0.00120729
-0.00219613
0.00136483
-0.00164235
0.00158067
-0.00110099
0.00189495
-0.000682741
0.00201093
-0.00055267
0.00191077
-0.000610272
0.00171835
-0.000651448
0.00155387
-0.000590436
0.00141723
-0.000494409
0.001321
-0.00038701
0.00127999
-0.000270016
0.00132128
-0.000169153
0.00137036
-0.000126909
0.00142382
-0.000113955
0.0014777
-9.75711e-05
0.00152032
-5.44289e-05
0.00153129
3.04791e-05
0.00149027
0.000160196
0.00138555
0.000333723
0.00121879
0.000560543
0.00107033
0.000909378
0.000905221
0.00137401
0.000507328
0.00197567
0.000379541
0.00255187
-0.0011175
0.00149683
-0.00157779
0.000460087
-0.00152376
-0.000635136
0.0107266
-0.000993819
0.00462668
-0.000534221
0.00244265
-9.85565e-05
0.00164733
0.000293373
0.000886983
0.000805726
-0.000247996
0.00133121
-0.00144985
0.0017148
-0.00236352
0.0019349
-0.00294799
0.00201271
-0.00321464
0.00198961
-0.0031977
0.00189509
-0.00295725
0.0017667
-0.00255949
0.00164137
-0.0020708
0.0015501
-0.00155108
0.00151432
-0.00106521
0.0015238
-0.00069222
0.00147658
-0.000505449
0.00133197
-0.000465658
0.00113325
-0.000452735
0.000954986
-0.000412167
0.000815949
-0.000355372
0.000723691
-0.000294753
0.000688017
-0.000234342
0.00070831
-0.000189446
0.000758228
-0.000176827
0.000825079
-0.000180806
0.000903557
-0.000176049
0.000987672
-0.000138544
0.00106285
-4.47032e-05
0.00111068
0.000112365
0.00112944
0.000314968
0.00112739
0.000562588
0.00115332
0.000883452
0.00126148
0.00126586
0.00145592
0.00178123
0.00195735
0.00205044
0.00223755
0.00121663
0.00185515
0.000842495
0.000396112
-0.000661981
0.0118667
-0.000514085
0.00447878
0.000719526
0.00120903
0.00164489
0.000721967
0.00250358
2.82949e-05
0.00329609
-0.0010405
0.00378077
-0.00193453
0.00395701
-0.00253976
0.00387104
-0.00286203
0.0035873
-0.0029309
0.00317723
-0.00278763
0.00270429
-0.00248432
0.00222608
-0.00208128
0.00178973
-0.00163445
0.00142424
-0.0011856
0.00114285
-0.000783816
0.000937301
-0.000486666
0.000759478
-0.000327627
0.000571794
-0.000277974
0.000385269
-0.00026621
0.000227199
-0.000254097
0.000109952
-0.000238126
3.74504e-05
-0.000222251
1.29231e-05
-0.000209815
3.18494e-05
-0.000208373
7.86117e-05
-0.000223589
0.00014283
-0.000245025
0.000223235
-0.000256454
0.000324424
-0.000239732
0.000452141
-0.00017242
0.000590567
-2.60608e-05
0.000728323
0.000177213
0.000879892
0.000411019
0.00108558
0.000677763
0.00140137
0.00095007
0.00190188
0.00128072
0.00265163
0.00130069
0.00323289
0.000635368
0.0033021
0.000773288
0.00376809
0.00277157
0.00963044
0.00355298
0.00369738
0.00417957
0.000582443
0.00519024
-0.0002887
0.00611679
-0.000898258
0.00657573
-0.00149944
0.00659151
-0.00195031
0.00623675
-0.002185
0.00560134
-0.00222662
0.00478529
-0.00211484
0.00388728
-0.00188962
0.00298963
-0.00158667
0.00215881
-0.00125046
0.00144153
-0.000917165
0.000856971
-0.00060104
0.000413858
-0.000340702
0.000104115
-0.000176923
-0.000114632
-0.00010888
-0.000287585
-0.000105021
-0.000431763
-0.000122033
-0.000546683
-0.000139177
-0.000631023
-0.000153785
-0.000685212
-0.000168062
-0.000710428
-0.000184598
-0.000711905
-0.000206896
-0.000699767
-0.000235727
-0.00067999
-0.000264802
-0.000651452
-0.000284992
-0.000604883
-0.000286301
-0.000520275
-0.000257028
-0.000365754
-0.000180582
-0.000158704
-2.98375e-05
8.25789e-05
0.000169736
0.000380891
0.00037945
0.000748599
0.000582362
0.00124383
0.00078549
0.00176303
0.000781489
0.00185422
0.000544177
0.000828653
0.00179885
0.00489266
0.0102235
0.013917
0.0129814
0.00151807
0.0123594
0.000333315
0.0116024
-0.000141306
0.0105582
-0.000455267
0.00924617
-0.000638236
0.0077789
-0.000717733
0.006258
-0.000705717
0.00477085
-0.000627696
0.00339615
-0.000514913
0.0021831
-0.000373623
0.00116459
-0.000231951
0.000348485
-0.000101059
-0.000256858
4.30295e-06
-0.000649205
5.16451e-05
-0.000878902
5.27738e-05
-0.00102203
3.42481e-05
-0.00113164
4.59155e-06
-0.00122634
-2.73377e-05
-0.00130786
-5.76561e-05
-0.00137708
-8.45611e-05
-0.00143555
-0.000109592
-0.00148665
-0.000133502
-0.00153651
-0.000157031
-0.00159362
-0.000178625
-0.00166571
-0.000192713
-0.00176003
-0.000190663
-0.00188492
-0.000161412
-0.00205104
-9.09086e-05
-0.00226579
3.41614e-05
-0.00251652
0.000220897
-0.00283264
0.000485851
-0.00330091
0.000847729
-0.00402277
0.00130422
-0.00506101
0.00182373
-0.00653505
0.00225553
-0.00836081
0.00236994
-0.00804666
0.00148471
-0.00282712
0.0043756
0.00337867
0.00335887
0.00135004
0.00364986
-0.000432294
0.00358672
-0.000392128
0.00312743
-0.00017895
0.00244025
-3.05466e-05
0.00163745
9.70778e-05
0.000812592
0.000197165
4.12365e-05
0.000256443
-0.000606001
0.000273615
-0.00109024
0.00025229
-0.00141802
0.000226718
-0.00160923
0.000195512
-0.00171362
0.000156034
-0.00177803
0.000117192
-0.00182722
8.34319e-05
-0.00187603
5.34063e-05
-0.00193056
2.71903e-05
-0.00199144
3.22386e-06
-0.002056
-2.00043e-05
-0.00212332
-4.22665e-05
-0.00219643
-6.03992e-05
-0.00227919
-7.42661e-05
-0.002375
-8.28166e-05
-0.00248484
-8.28698e-05
-0.00260626
-6.92453e-05
-0.0027319
-3.57697e-05
-0.00284885
2.60387e-05
-0.00294835
0.000133664
-0.00303263
0.000305177
-0.00310857
0.000561789
-0.00318165
0.000920811
-0.00325005
0.00137262
-0.00325712
0.0018308
-0.00309639
0.0020948
-0.00211637
0.00138991
-0.000205396
-0.000426266
-0.00294814
-0.00078924
0.00425235
-0.000343901
0.000904706
-0.00102235
0.000246153
-0.00154296
0.000128481
-0.0018966
0.000174692
-0.00215944
0.000232289
-0.00234571
0.000283357
-0.00247407
0.000325523
-0.00255652
0.000338891
-0.00259887
0.000315965
-0.00261352
0.000266935
-0.00260001
0.000213207
-0.00256676
0.000162269
-0.00252837
0.000117644
-0.00249425
8.30645e-05
-0.00246853
5.77117e-05
-0.00245364
3.85212e-05
-0.0024494
2.2951e-05
-0.00245542
9.24223e-06
-0.00246968
-5.74206e-06
-0.00249282
-1.91244e-05
-0.0025245
-2.87275e-05
-0.00256434
-3.44241e-05
-0.00261136
-3.57986e-05
-0.00266296
-3.12651e-05
-0.00271417
-1.80394e-05
-0.00275749
7.55346e-06
-0.00277961
4.81584e-05
-0.00275962
0.000113673
-0.00267339
0.000218948
-0.00248935
0.000377751
-0.00217979
0.000611253
-0.00173903
0.000931849
-0.00113451
0.00122628
-3.00574e-05
0.000990349
0.00183683
-0.000476977
0.00346875
-0.00205819
0.00061216
-0.00788098
-0.0111401
-0.00683244
-0.00589961
-0.00563426
-0.00549036
-0.0053026
-0.00505888
-0.00476525
-0.0044302
-0.00408219
-0.00375721
-0.00348114
-0.00325855
-0.00308662
-0.00295907
-0.00286587
-0.0027978
-0.00274876
-0.00271515
-0.00269517
-0.00269016
-0.00269856
-0.00271664
-0.00274053
-0.00276596
-0.00278705
-0.00279513
-0.00277789
-0.00272033
-0.00259759
-0.00236992
-0.00198384
-0.00136466
-0.000425316
0.000807931
0.00180497
0.00133498
-0.000717074
)
;

boundaryField
{
    floor
    {
        type            calculated;
        value           nonuniform List<scalar> 
29
(
0
0
0
0
0
0
0
0
0
0
0
0
0
0
0
0
0
0
0
0
-5.03738e-06
-1.27514e-05
-1.92212e-05
-2.51136e-05
-2.06309e-06
-3.70855e-06
-1.06711e-05
-1.13733e-05
-1.0248e-05
)
;
    }
    ceiling
    {
        type            calculated;
        value           nonuniform List<scalar> 
43
(
-5.92924e-05
-5.70645e-05
-5.52777e-05
-2.81314e-05
-1.91878e-05
-1.5419e-05
-1.30754e-05
-1.14251e-05
-1.02796e-05
-9.52614e-06
-9.11455e-06
-9.01225e-06
-9.14189e-06
-9.38384e-06
-9.65225e-06
-9.90842e-06
-1.01419e-05
-1.03504e-05
-1.0526e-05
-1.06565e-05
-1.07347e-05
-1.07558e-05
-1.07246e-05
-1.06474e-05
-1.05279e-05
-1.03716e-05
-1.01783e-05
-9.95283e-06
-9.6946e-06
-9.39772e-06
-9.06986e-06
-8.7153e-06
-8.33495e-06
-7.92659e-06
-7.49195e-06
-6.96442e-06
-6.68984e-06
-6.98781e-06
-6.13532e-06
-3.81867e-06
6.30487e-06
3.87905e-06
-8.44428e-05
)
;
    }
    sWall
    {
        type            calculated;
        value           uniform -0.000279543;
    }
    nWall
    {
        type            calculated;
        value           nonuniform List<scalar> 6(-5.42349e-05 -6.47244e-05 -6.98809e-05 -8.43734e-05 -9.15478e-05 -0.000101095);
    }
    sideWalls
    {
        type            empty;
        value           nonuniform 0();
    }
    glass1
    {
        type            calculated;
        value           nonuniform List<scalar> 9(-5.9806e-05 -0.000160672 -0.000245469 -0.000317668 -0.000379003 -0.000430772 -0.000478043 -0.000535344 -0.000599382);
    }
    glass2
    {
        type            calculated;
        value           nonuniform List<scalar> 2(-0.000295913 -0.000326884);
    }
    sun
    {
        type            calculated;
        value           uniform 0;
    }
    heatsource1
    {
        type            calculated;
        value           nonuniform List<scalar> 3(2.05042e-07 2.04926e-07 2.04945e-07);
    }
    heatsource2
    {
        type            calculated;
        value           nonuniform List<scalar> 4(5.14196e-08 5.15273e-08 0 0);
    }
    Table_master
    {
        type            calculated;
        value           nonuniform List<scalar> 9(-1.53794e-07 -1.53886e-07 -1.53918e-07 -1.5394e-07 -1.53955e-07 -1.53966e-07 -1.53971e-07 -1.53965e-07 -1.53932e-07);
    }
    Table_slave
    {
        type            calculated;
        value           nonuniform List<scalar> 9(1.53658e-07 1.53683e-07 1.53664e-07 1.53649e-07 1.53646e-07 1.53649e-07 1.53668e-07 1.53716e-07 1.53803e-07);
    }
    inlet
    {
        type            calculated;
        value           uniform -0.0062362;
    }
    outlet
    {
        type            calculated;
        value           nonuniform List<scalar> 2(0.00821982 0.00331616);
    }
}


// ************************************************************************* //
