/*--------------------------------*- C++ -*----------------------------------*\
  =========                 |
  \\      /  F ield         | OpenFOAM: The Open Source CFD Toolbox
   \\    /   O peration     | Website:  https://openfoam.org
    \\  /    A nd           | Version:  6
     \\/     M anipulation  |
\*---------------------------------------------------------------------------*/
FoamFile
{
    version     2.0;
    format      ascii;
    class       volScalarField;
    location    "900";
    object      epsilon;
}
// * * * * * * * * * * * * * * * * * * * * * * * * * * * * * * * * * * * * * //

dimensions      [0 2 -3 0 0 0 0];

internalField   nonuniform List<scalar> 
459
(
0.000492332
0.000643207
0.000676523
0.000779991
0.000885562
0.000992932
0.00110639
0.00122562
0.00131562
0.00135732
0.00133432
0.0012405
0.00108539
0.000898178
0.000720235
4.43736e-05
8.00846e-05
0.000110192
0.000104787
9.25825e-05
7.91349e-05
6.51408e-05
5.32486e-05
4.38283e-05
3.64534e-05
3.0649e-05
2.60316e-05
2.23432e-05
1.93345e-05
1.68078e-05
1.4589e-05
1.25149e-05
1.15098e-05
9.00604e-06
0.00126521
0.00181697
0.000610535
0.0005907
0.000621618
0.000669632
0.000737448
0.000825831
0.000909667
0.00096457
0.000969962
0.000917407
0.000812637
0.000680531
0.000593024
0.000759712
0.000159587
5.75101e-05
0.000134659
0.000136888
0.000121006
0.000100583
8.24759e-05
7.24875e-05
5.85351e-05
4.64766e-05
3.69518e-05
2.95986e-05
2.3938e-05
1.95977e-05
1.62608e-05
1.38098e-05
1.23243e-05
1.17544e-05
3.42574e-05
2.24241e-05
0.00231867
0.00447105
0.000779317
0.000572864
0.000601939
0.000678059
0.000787315
0.000922255
0.00104662
0.00112589
0.00114026
0.00108746
0.000977604
0.000832616
0.000706313
0.000635234
0.000730636
0.000457355
0.000310087
0.000224709
0.000168068
0.000129124
0.000106203
0.000187976
0.000129647
9.2787e-05
6.87823e-05
5.26272e-05
4.14099e-05
3.34173e-05
2.76252e-05
2.34442e-05
1.78175e-05
1.51586e-05
6.73027e-05
3.65667e-05
0.00375957
0.00925032
0.0012738
0.000601428
0.00060632
0.000717117
0.00089027
0.00109839
0.00126339
0.00135029
0.00135332
0.00128142
0.00114827
0.000970925
0.000807283
0.000687606
0.000659237
0.00126453
0.00069701
0.000407457
0.000266431
0.00018802
0.000140684
0.000118643
0.000265193
0.000199726
0.000160535
0.000134516
0.0001147
9.81874e-05
8.39218e-05
7.05352e-05
5.68911e-05
3.3707e-05
2.3247e-05
0.000119811
4.97916e-05
0.00573328
0.0163551
0.00256356
0.000772041
0.000668952
0.000818143
0.00112879
0.00143424
0.00160993
0.00166866
0.00163349
0.00152093
0.00134261
0.00112017
0.000891153
0.000688609
0.000538216
0.000468927
0.000370936
0.000283365
0.000215165
0.000165122
0.000129763
0.000107727
0.000103972
9.67009e-05
8.94659e-05
8.23457e-05
7.48029e-05
6.67298e-05
5.88361e-05
5.14871e-05
4.48235e-05
3.57792e-05
2.84371e-05
8.19061e-05
5.76682e-05
9.39137e-05
0.000158981
0.000222544
0.00845559
0.0240792
0.00573716
0.00161201
0.00113587
0.00130666
0.00184177
0.00210182
0.00217083
0.002134
0.00202799
0.0018538
0.00160949
0.00131324
0.0010049
0.000729349
0.000521412
0.000390323
0.00030509
0.000239573
0.000186445
0.000146246
0.000118292
0.000101406
9.43491e-05
9.18244e-05
9.03373e-05
8.80794e-05
8.38613e-05
7.66402e-05
6.65448e-05
5.62754e-05
4.71008e-05
3.91656e-05
3.53601e-05
5.66906e-05
5.95943e-05
7.16735e-05
0.000297666
0.000256083
0.0115075
0.0286031
0.011542
0.00515681
0.00370835
0.00360787
0.00351321
0.00329986
0.0030555
0.00282184
0.00258472
0.00230385
0.00195373
0.00154942
0.00113978
0.000782364
0.000522031
0.00036067
0.000265949
0.000203472
0.000157944
0.000126448
0.000107218
9.81816e-05
9.69691e-05
9.9972e-05
0.000104204
0.000108254
0.000110908
0.000110154
0.000101836
8.91567e-05
7.6948e-05
6.69163e-05
6.44928e-05
7.70137e-05
9.95092e-05
0.000161509
0.000406543
0.000373786
0.0121062
0.030192
0.0172154
0.0122824
0.00957245
0.00749544
0.00594802
0.00489422
0.00420343
0.00372756
0.00332464
0.00288472
0.00236282
0.00179099
0.0012404
0.000781785
0.000476469
0.000301951
0.000210688
0.000160324
0.000128436
0.000109518
0.000100625
9.93831e-05
0.000103746
0.000111874
0.0001227
0.000136139
0.000152402
0.000171322
0.000191524
0.000203243
0.000213273
0.000236661
0.000285371
0.000435275
0.000803386
0.00160407
0.0054814
0.00131295
0.0111033
0.0182597
0.0146953
0.0112017
0.00874382
0.00716394
0.00619357
0.0056089
0.00521001
0.00481455
0.00428743
0.00357198
0.00272002
0.00187534
0.00115127
0.000599083
0.000341645
0.00022043
0.000159361
0.000125972
0.000107255
9.82617e-05
9.62302e-05
9.9347e-05
0.000106511
0.000117283
0.000131978
0.0001517
0.000178293
0.000214435
0.000263871
0.000331614
0.000425243
0.000566415
0.000775453
0.00106122
0.00139287
0.00169115
0.00191483
0.00105371
0.0039087
0.0068009
0.00838357
0.00878507
0.00872937
0.0082738
0.00738903
0.00614868
0.00471708
0.00324791
0.00196533
0.00115627
0.000659945
0.000377418
0.000241774
0.000175609
0.000140777
0.000120766
0.000109274
0.000103657
0.000102359
0.000104419
0.000109441
0.00011749
0.00012907
0.000145208
0.000167636
0.000199129
0.000244098
0.000308727
0.00040058
0.000530279
0.000706438
0.000923825
0.00115606
0.00137465
0.00122914
0.000600986
0.00370955
0.00822419
0.00838946
0.00700303
0.0061768
0.00527684
0.00422732
0.00317778
0.00223447
0.00145907
0.000895172
0.000552093
0.000359533
0.000258661
0.000208751
0.000182518
0.000166358
0.000154499
0.000144806
0.000137166
0.000131984
0.0001294
0.000129716
0.000133477
0.000141465
0.000154752
0.000174842
0.00020394
0.000245363
0.000303498
0.00038439
0.00049463
0.000637176
0.000805745
0.000985538
0.00124708
0.000660383
0.00066232
0.0026544
0.00316598
0.00357292
0.00447836
0.00402175
0.00357377
0.00325611
0.00283833
0.00232864
0.0017977
0.00130379
0.000892874
0.000592219
0.000398216
0.00028132
0.000211664
0.000169393
0.000143216
0.000126969
0.000117408
0.000112833
0.000111884
0.000113552
0.000117643
0.000124196
0.000133438
0.000145778
0.000161888
0.000182879
0.000210653
0.000245968
0.000290979
0.000348161
0.000420718
0.000511878
0.000632048
0.000669212
0.000507857
0.000411291
0.000597278
)
;

boundaryField
{
    floor
    {
        Cmu             0.09;
        kappa           0.41;
        E               9.8;
        type            epsilonWallFunction;
        value           nonuniform List<scalar> 
29
(
0.000720235
4.43736e-05
8.00846e-05
0.000110192
0.000104787
9.25825e-05
7.91349e-05
6.51408e-05
5.32486e-05
4.38283e-05
3.64534e-05
3.0649e-05
2.60316e-05
2.23432e-05
1.93345e-05
1.68078e-05
1.4589e-05
1.25149e-05
1.15098e-05
9.00604e-06
9.00604e-06
2.24241e-05
3.65667e-05
4.97916e-05
0.000720235
4.43736e-05
5.75101e-05
0.000457355
0.00126453
)
;
    }
    ceiling
    {
        Cmu             0.09;
        kappa           0.41;
        E               9.8;
        type            epsilonWallFunction;
        value           nonuniform List<scalar> 
43
(
0.0026544
0.00316598
0.00357292
0.00447836
0.00402175
0.00357377
0.00325611
0.00283833
0.00232864
0.0017977
0.00130379
0.000892874
0.000592219
0.000398216
0.00028132
0.000211664
0.000169393
0.000143216
0.000126969
0.000117408
0.000112833
0.000111884
0.000113552
0.000117643
0.000124196
0.000133438
0.000145778
0.000161888
0.000182879
0.000210653
0.000245968
0.000290979
0.000348161
0.000420718
0.000511878
0.000632048
0.000669212
0.000507857
0.000411291
0.000597278
0.0111033
0.0182597
0.00370955
)
;
    }
    sWall
    {
        Cmu             0.09;
        kappa           0.41;
        E               9.8;
        type            epsilonWallFunction;
        value           uniform 0.0026544;
    }
    nWall
    {
        Cmu             0.09;
        kappa           0.41;
        E               9.8;
        type            epsilonWallFunction;
        value           nonuniform List<scalar> 6(0.000222544 0.000256083 0.000373786 0.000600986 0.00066232 0.000597278);
    }
    sideWalls
    {
        type            empty;
    }
    glass1
    {
        Cmu             0.09;
        kappa           0.41;
        E               9.8;
        type            epsilonWallFunction;
        value           nonuniform List<scalar> 9(0.000492332 0.00126521 0.00231867 0.00375957 0.00573328 0.00845559 0.0115075 0.0121062 0.0111033);
    }
    glass2
    {
        Cmu             0.09;
        kappa           0.41;
        E               9.8;
        type            epsilonWallFunction;
        value           nonuniform List<scalar> 2(0.00131295 0.00105371);
    }
    sun
    {
        Cmu             0.09;
        kappa           0.41;
        E               9.8;
        type            epsilonWallFunction;
        value           nonuniform List<scalar> 
14
(
0.000492332
0.000643207
0.000676523
0.000779991
0.000885562
0.000992932
0.00110639
0.00122562
0.00131562
0.00135732
0.00133432
0.0012405
0.00108539
0.000898178
)
;
    }
    heatsource1
    {
        Cmu             0.09;
        kappa           0.41;
        E               9.8;
        type            epsilonWallFunction;
        value           nonuniform List<scalar> 3(9.39137e-05 0.000158981 0.000222544);
    }
    heatsource2
    {
        Cmu             0.09;
        kappa           0.41;
        E               9.8;
        type            epsilonWallFunction;
        value           nonuniform List<scalar> 4(0.000759712 0.000159587 0.000159587 0.000730636);
    }
    Table_master
    {
        Cmu             0.09;
        kappa           0.41;
        E               9.8;
        type            epsilonWallFunction;
        value           nonuniform List<scalar> 9(0.000187976 0.000129647 9.2787e-05 6.87823e-05 5.26272e-05 4.14099e-05 3.34173e-05 2.76252e-05 2.34442e-05);
    }
    Table_slave
    {
        Cmu             0.09;
        kappa           0.41;
        E               9.8;
        type            epsilonWallFunction;
        value           nonuniform List<scalar> 9(0.000265193 0.000199726 0.000160535 0.000134516 0.0001147 9.81874e-05 8.39218e-05 7.05352e-05 5.68911e-05);
    }
    inlet
    {
        type            turbulentMixingLengthDissipationRateInlet;
        mixingLength    0.01;
        phi             phi;
        k               k;
        value           uniform 0.000101881;
    }
    outlet
    {
        type            zeroGradient;
    }
}


// ************************************************************************* //
