// -*- C++ -*-
// File generated by PyFoam - sorry for the ugliness

FoamFile
{
 version 2.0;
 format ascii;
 class volVectorField;
 location "900";
 object U;
}

dimensions [ 0 1 -1 0 0 0 0 ];

internalField nonuniform List<vector> 459
(
  (0.035703 0.0874108 0)
  (-0.169897 0.0257257 0)
  (-0.193699 0.0177825 0)
  (-0.224195 0.0123283 0)
  (-0.246407 0.00631032 0)
  (-0.259545 1.77999e-05 0)
  (-0.262374 -0.00659098 0)
  (-0.253746 -0.0135245 0)
  (-0.23431 -0.020364 0)
  (-0.205373 -0.0261352 0)
  (-0.169704 -0.0300279 0)
  (-0.130511 -0.0317472 0)
  (-0.090953 -0.0318234 0)
  (-0.0562815 -0.0320207 0)
  (-0.0423907 -0.0340563 0)
  (0.00211143 0.00765994 0)
  (-0.0239305 -0.0201254 0)
  (0.00255373 -0.0286713 0)
  (0.0246759 -0.020593 0)
  (0.0411599 -0.013515 0)
  (0.0528075 -0.00847671 0)
  (0.0593885 -0.00510687 0)
  (0.0625163 -0.00336074 0)
  (0.0638795 -0.00257272 0)
  (0.0645668 -0.00216973 0)
  (0.0649671 -0.00190721 0)
  (0.0651231 -0.00169841 0)
  (0.0649794 -0.00144683 0)
  (0.0643304 -0.000986394 0)
  (0.0626153 6.33034e-05 0)
  (0.0586443 0.00222699 0)
  (0.0511442 0.004393 0)
  (0.0453783 0.00582383 0)
  (-0.0174552 0.022225 0)
  (0.213223 0.178678 0)
  (-0.158008 0.0676201 0)
  (-0.154844 0.0520233 0)
  (-0.185994 0.0405401 0)
  (-0.207634 0.0276919 0)
  (-0.220697 0.0135765 0)
  (-0.223977 -0.00202862 0)
  (-0.216151 -0.018722 0)
  (-0.198367 -0.0345666 0)
  (-0.172266 -0.0472549 0)
  (-0.140811 -0.0550539 0)
  (-0.107247 -0.0573631 0)
  (-0.0747646 -0.0547342 0)
  (-0.0472871 -0.048728 0)
  (-0.0298759 -0.0405414 0)
  (-0.0154924 -0.0205449 0)
  (-0.00734013 0.0127107 0)
  (0.0794362 0.0322706 0)
  (0.0358757 -0.0199226 0)
  (0.0412524 -0.031674 0)
  (0.0524577 -0.026416 0)
  (0.0609209 -0.0176429 0)
  (0.0661611 -0.00985245 0)
  (0.0680854 -0.00388631 0)
  (0.0682474 -0.000668894 0)
  (0.0681024 0.000723836 0)
  (0.0681473 0.00138556 0)
  (0.068275 0.0018009 0)
  (0.0683611 0.002158 0)
  (0.0683586 0.00261345 0)
  (0.068221 0.00352032 0)
  (0.0673985 0.00579177 0)
  (0.063392 0.0121476 0)
  (0.0532915 0.017239 0)
  (0.0502816 0.020049 0)
  (-0.0593971 0.0481627 0)
  (0.375205 0.266926 0)
  (-0.174378 0.107477 0)
  (-0.11572 0.0837759 0)
  (-0.145358 0.0632308 0)
  (-0.16406 0.0421693 0)
  (-0.175632 0.0194167 0)
  (-0.178138 -0.0057796 0)
  (-0.169519 -0.0323295 0)
  (-0.1519 -0.0567938 0)
  (-0.127596 -0.0754731 0)
  (-0.0997961 -0.0860265 0)
  (-0.0713591 -0.0880539 0)
  (-0.0446134 -0.0824757 0)
  (-0.0217882 -0.0706433 0)
  (-0.00515372 -0.0537067 0)
  (0.00810015 -0.0277008 0)
  (0.0160842 0.00731764 0)
  (0.118577 -0.0455005 0)
  (0.0761806 -0.046799 0)
  (0.0706317 -0.0411944 0)
  (0.0729301 -0.0321433 0)
  (0.0743971 -0.0221628 0)
  (0.0748939 -0.0138146 0)
  (0.0729775 -0.0112224 0)
  (0.0692202 -0.00803393 0)
  (0.0667618 -0.00631714 0)
  (0.0657251 -0.00534245 0)
  (0.0653344 -0.00473071 0)
  (0.0652068 -0.00430574 0)
  (0.0653885 -0.00387297 0)
  (0.066343 -0.00309393 0)
  (0.0692858 7.93195e-06 0)
  (0.0669489 0.0174626 0)
  (0.0524283 0.0294187 0)
  (0.0577948 0.036533 0)
  (-0.0964929 0.0745886 0)
  (0.520139 0.337692 0)
  (-0.208401 0.142904 0)
  (-0.0751421 0.110316 0)
  (-0.102317 0.0818709 0)
  (-0.115041 0.054796 0)
  (-0.122375 0.0251045 0)
  (-0.121028 -0.0092458 0)
  (-0.109238 -0.0458556 0)
  (-0.0909806 -0.0780815 0)
  (-0.0691987 -0.101215 0)
  (-0.0467935 -0.113037 0)
  (-0.0255605 -0.114026 0)
  (-0.00645 -0.105768 0)
  (0.0103102 -0.089433 0)
  (0.0239581 -0.0680326 0)
  (0.0386298 -0.0419697 0)
  (0.0616183 -0.0148426 0)
  (0.0931149 0.00432579 0)
  (0.100927 -0.0342164 0)
  (0.0855767 -0.0398751 0)
  (0.0769805 -0.0347439 0)
  (0.0734695 -0.0278944 0)
  (0.0713764 -0.0200638 0)
  (0.0708373 -0.0110076 0)
  (0.0732422 -0.00648908 0)
  (0.0777072 -0.00538165 0)
  (0.0814913 -0.00473983 0)
  (0.0842534 -0.00415144 0)
  (0.0860302 -0.00327775 0)
  (0.0861128 -0.00189397 0)
  (0.0833425 0.000194102 0)
  (0.0765001 0.00324493 0)
  (0.0626222 0.00780554 0)
  (0.0511662 0.0287307 0)
  (0.0386026 0.0456311 0)
  (0.061655 0.0578327 0)
  (-0.142448 0.0971039 0)
  (0.643709 0.392508 0)
  (-0.249381 0.172025 0)
  (-0.0360988 0.124828 0)
  (-0.057466 0.0916923 0)
  (-0.0614998 0.0611638 0)
  (-0.0611945 0.0265125 0)
  (-0.0498128 -0.0160905 0)
  (-0.0326994 -0.0611215 0)
  (-0.0147673 -0.0975776 0)
  (0.00193574 -0.121607 0)
  (0.0157472 -0.131698 0)
  (0.0266277 -0.129982 0)
  (0.0350695 -0.119172 0)
  (0.0417747 -0.101512 0)
  (0.0477801 -0.0795831 0)
  (0.0550356 -0.0559997 0)
  (0.0661682 -0.0363144 0)
  (0.0768132 -0.0310157 0)
  (0.0784061 -0.0374837 0)
  (0.0716307 -0.0356998 0)
  (0.0635402 -0.0299121 0)
  (0.0577391 -0.0237895 0)
  (0.0539622 -0.0177013 0)
  (0.0523936 -0.0116457 0)
  (0.053226 -0.0068126 0)
  (0.0560551 -0.00471365 0)
  (0.0591138 -0.00392818 0)
  (0.0620854 -0.0030849 0)
  (0.0647706 -0.0012583 0)
  (0.0667031 0.00206923 0)
  (0.0665582 0.00689117 0)
  (0.0637904 0.0132835 0)
  (0.057717 0.0218795 0)
  (0.0504399 0.0378671 0)
  (0.0387577 0.0571006 0)
  (0.0688603 0.0781483 0)
  (-0.039382 0.109538 0)
  (0.0468786 0.0232716 0)
  (-0.070061 -0.0380584 0)
  (-0.286478 -0.0616521 0)
  (0.731759 0.438187 0)
  (-0.288419 0.191529 0)
  (-0.00727546 0.118957 0)
  (-0.0106252 0.0896882 0)
  (-0.00215417 0.0597648 0)
  (0.0101171 0.0186341 0)
  (0.0387846 -0.0331205 0)
  (0.0588719 -0.0785267 0)
  (0.0726069 -0.11175 0)
  (0.0800512 -0.131417 0)
  (0.0820469 -0.138083 0)
  (0.0801011 -0.13372 0)
  (0.0756387 -0.120941 0)
  (0.0700877 -0.102439 0)
  (0.0649083 -0.0809858 0)
  (0.0614223 -0.0592798 0)
  (0.0605323 -0.0411976 0)
  (0.0599464 -0.0315444 0)
  (0.0558375 -0.0290819 0)
  (0.0480704 -0.0267088 0)
  (0.0397899 -0.0227255 0)
  (0.033438 -0.0184682 0)
  (0.029388 -0.0144696 0)
  (0.0277637 -0.0107979 0)
  (0.0284266 -0.00818619 0)
  (0.0308142 -0.00748934 0)
  (0.0339789 -0.00753564 0)
  (0.0375855 -0.00707483 0)
  (0.0414436 -0.00511999 0)
  (0.0452881 -0.000813104 0)
  (0.0485655 0.0059685 0)
  (0.0500989 0.014694 0)
  (0.0502387 0.0255169 0)
  (0.0506788 0.0403616 0)
  (0.048364 0.059063 0)
  (0.0770776 0.0838551 0)
  (0.0478037 0.102762 0)
  (0.0975576 0.0681997 0)
  (0.122431 0.0446306 0)
  (-0.139438 -0.0104922 0)
  (0.786312 0.480035 0)
  (-0.30597 0.176698 0)
  (0.0221377 0.0639409 0)
  (0.0544058 0.0575621 0)
  (0.078289 0.0393267 0)
  (0.114314 -0.00655112 0)
  (0.144427 -0.0555134 0)
  (0.161155 -0.0932767 0)
  (0.165603 -0.117929 0)
  (0.159808 -0.130079 0)
  (0.146429 -0.1311 0)
  (0.128368 -0.123086 0)
  (0.108268 -0.108555 0)
  (0.0883662 -0.0901202 0)
  (0.0704404 -0.0701863 0)
  (0.0555481 -0.0508311 0)
  (0.044179 -0.0348976 0)
  (0.0351937 -0.0249979 0)
  (0.0265885 -0.0205588 0)
  (0.0178789 -0.018115 0)
  (0.0101868 -0.0156906 0)
  (0.00454531 -0.013454 0)
  (0.00110537 -0.0116389 0)
  (-0.000180363 -0.0102755 0)
  (0.000446011 -0.00973547 0)
  (0.00241031 -0.0102612 0)
  (0.0050956 -0.0110565 0)
  (0.008328 -0.0112082 0)
  (0.0121962 -0.00983301 0)
  (0.0168635 -0.00588313 0)
  (0.023503 0.00162756 0)
  (0.0298188 0.0113553 0)
  (0.0357349 0.0223685 0)
  (0.0434116 0.0354468 0)
  (0.051202 0.050473 0)
  (0.0774919 0.0705473 0)
  (0.0901124 0.0779842 0)
  (0.126876 0.0510175 0)
  (0.169199 0.0416856 0)
  (-0.0321541 0.0951942 0)
  (0.893494 0.480729 0)
  (-0.0606696 0.155967 0)
  (0.116093 -0.0215202 0)
  (0.195685 -0.0527584 0)
  (0.234342 -0.0604668 0)
  (0.262766 -0.077118 0)
  (0.277176 -0.0944464 0)
  (0.275233 -0.107059 0)
  (0.258182 -0.113276 0)
  (0.22984 -0.112914 0)
  (0.194657 -0.106516 0)
  (0.15677 -0.0951953 0)
  (0.11955 -0.0804421 0)
  (0.0855191 -0.0640471 0)
  (0.0563144 -0.0476076 0)
  (0.0324266 -0.0322528 0)
  (0.0145209 -0.0203277 0)
  (0.00141968 -0.0134096 0)
  (-0.00836408 -0.0107891 0)
  (-0.0159236 -0.00998428 0)
  (-0.0218194 -0.00952635 0)
  (-0.0260249 -0.00929816 0)
  (-0.0287148 -0.00937244 0)
  (-0.030076 -0.00979492 0)
  (-0.0303787 -0.0106814 0)
  (-0.0300462 -0.0119969 0)
  (-0.0294285 -0.0133502 0)
  (-0.0285733 -0.0142627 0)
  (-0.0272621 -0.0142363 0)
  (-0.0250229 -0.0126806 0)
  (-0.0207301 -0.00883601 0)
  (-0.0107006 -0.00202138 0)
  (-0.000911653 0.00660517 0)
  (0.0108932 0.0151386 0)
  (0.023315 0.0222154 0)
  (0.0460777 0.0306126 0)
  (0.0662138 0.0239853 0)
  (0.0852514 -0.00271656 0)
  (0.145932 0.0510495 0)
  (-0.475998 0.218326 0)
  (1.04485 0.426694 0)
  (0.495057 0.278852 0)
  (0.513367 0.175129 0)
  (0.548677 0.102902 0)
  (0.53055 0.0531636 0)
  (0.486788 0.0111581 0)
  (0.435806 -0.0222287 0)
  (0.379453 -0.0447781 0)
  (0.318063 -0.0566098 0)
  (0.254674 -0.0595323 0)
  (0.193126 -0.0560232 0)
  (0.136592 -0.0483419 0)
  (0.0871457 -0.0382525 0)
  (0.0460548 -0.0275276 0)
  (0.0133411 -0.017497 0)
  (-0.0122963 -0.00885471 0)
  (-0.0274446 -0.00448616 0)
  (-0.0371792 -0.00302447 0)
  (-0.043926 -0.00329087 0)
  (-0.0491396 -0.00421501 0)
  (-0.0533531 -0.00523495 0)
  (-0.0567397 -0.00630361 0)
  (-0.059506 -0.0074461 0)
  (-0.0618793 -0.00867956 0)
  (-0.0641385 -0.0100117 0)
  (-0.0666269 -0.0113416 0)
  (-0.0696611 -0.0123888 0)
  (-0.0734956 -0.0127591 0)
  (-0.0784018 -0.0119637 0)
  (-0.0847721 -0.0093843 0)
  (-0.0931486 -0.00426134 0)
  (-0.103635 0.00395832 0)
  (-0.114262 0.0148198 0)
  (-0.129863 0.0283575 0)
  (-0.154698 0.0443717 0)
  (-0.190881 0.0613523 0)
  (-0.242986 0.074833 0)
  (-0.305042 0.0826561 0)
  (-0.382568 0.0857776 0)
  (-0.65687 0.0796832 0)
  (-0.196477 -0.0159664 0)
  (0.106147 -0.0221408 0)
  (0.185973 -0.0439452 0)
  (0.173561 -0.0414709 0)
  (0.157329 -0.0320324 0)
  (0.136183 -0.0229465 0)
  (0.107411 -0.0149149 0)
  (0.0736346 -0.00806049 0)
  (0.0391263 -0.00284602 0)
  (0.00649854 0.000785868 0)
  (-0.0217948 0.00296195 0)
  (-0.0419333 0.00357783 0)
  (-0.0561773 0.00318649 0)
  (-0.0650098 0.00171955 0)
  (-0.0698625 -0.000780039 0)
  (-0.0731871 -0.00351433 0)
  (-0.0759273 -0.00629806 0)
  (-0.0786959 -0.00878985 0)
  (-0.0815898 -0.0106147 0)
  (-0.0844551 -0.011929 0)
  (-0.0873766 -0.0128715 0)
  (-0.0905506 -0.0135187 0)
  (-0.0941695 -0.0139005 0)
  (-0.098397 -0.0139419 0)
  (-0.103313 -0.0134172 0)
  (-0.108861 -0.0119533 0)
  (-0.114797 -0.00905979 0)
  (-0.120644 -0.00419107 0)
  (-0.125737 0.00313543 0)
  (-0.12945 0.0129767 0)
  (-0.13234 0.0262497 0)
  (-0.134702 0.0434152 0)
  (-0.13741 0.0638244 0)
  (-0.140679 0.0843072 0)
  (-0.140685 0.0965215 0)
  (-0.118302 0.0859957 0)
  (-0.0402424 0.0285227 0)
  (-0.21022 -0.187291 0)
  (0.0225341 0.201808 0)
  (0.01944 0.0693568 0)
  (-0.0284848 0.015926 0)
  (-0.0470922 0.0140117 0)
  (-0.061336 0.0181793 0)
  (-0.0727332 0.0209169 0)
  (-0.0821176 0.0237448 0)
  (-0.0897834 0.0267651 0)
  (-0.0959519 0.0292417 0)
  (-0.100517 0.0307069 0)
  (-0.103505 0.0312211 0)
  (-0.104803 0.0315167 0)
  (-0.10481 0.0323565 0)
  (-0.103851 0.033714 0)
  (-0.102584 0.0355209 0)
  (-0.101536 0.037714 0)
  (-0.100918 0.039756 0)
  (-0.100832 0.0410376 0)
  (-0.101186 0.0409471 0)
  (-0.101979 0.0399571 0)
  (-0.103192 0.0386308 0)
  (-0.104813 0.0370214 0)
  (-0.10683 0.0351494 0)
  (-0.109208 0.0330764 0)
  (-0.111867 0.0309006 0)
  (-0.114653 0.0287282 0)
  (-0.11732 0.0266346 0)
  (-0.119394 0.0246138 0)
  (-0.120004 0.0240981 0)
  (-0.117922 0.0264717 0)
  (-0.111695 0.0327553 0)
  (-0.100142 0.0438251 0)
  (-0.0834477 0.05948 0)
  (-0.0632292 0.0756663 0)
  (-0.0426186 0.0827812 0)
  (0.0399632 0.0325343 0)
  (0.150685 -0.060021 0)
  (-0.0520717 -0.0627798 0)
  (-0.0910675 -0.347226 0)
  (-0.447126 -0.138125 0)
  (-0.3331 0.0463416 0)
  (-0.284983 -0.0466313 0)
  (-0.242631 -0.0551271 0)
  (-0.229385 -0.0483512 0)
  (-0.220886 -0.0415327 0)
  (-0.21215 -0.0371242 0)
  (-0.201779 -0.0347434 0)
  (-0.189567 -0.0344625 0)
  (-0.176093 -0.0368353 0)
  (-0.162424 -0.0421681 0)
  (-0.149753 -0.0501632 0)
  (-0.138913 -0.0598881 0)
  (-0.130223 -0.070304 0)
  (-0.123637 -0.080889 0)
  (-0.118911 -0.091051 0)
  (-0.11564 -0.099969 0)
  (-0.113456 -0.107053 0)
  (-0.112157 -0.111876 0)
  (-0.111698 -0.114199 0)
  (-0.112031 -0.114441 0)
  (-0.112979 -0.113286 0)
  (-0.114341 -0.110928 0)
  (-0.11596 -0.107494 0)
  (-0.11768 -0.103041 0)
  (-0.119283 -0.0975511 0)
  (-0.120455 -0.0909062 0)
  (-0.120777 -0.0828446 0)
  (-0.119722 -0.0729672 0)
  (-0.116374 -0.0621769 0)
  (-0.108872 -0.0503906 0)
  (-0.0945759 -0.0373304 0)
  (-0.0713272 -0.0223024 0)
  (-0.0396362 -0.00480255 0)
  (0.00588783 0.0147127 0)
  (0.0473291 0.00621622 0)
  (0.108525 -0.0492766 0)
  (0.119895 -0.0912386 0)
  (-0.518386 0.00886701 0)
)
;

boundaryField
{
  floor
  {
    type noSlip;
  }
  ceiling
  {
    type noSlip;
  }
  sWall
  {
    type noSlip;
  }
  nWall
  {
    type noSlip;
  }
  sideWalls
  {
    type empty;
  }
  glass1
  {
    type noSlip;
  }
  glass2
  {
    type noSlip;
  }
  sun
  {
    type noSlip;
  }
  heatsource1
  {
    type noSlip;
  }
  heatsource2
  {
    type noSlip;
  }
  Table_master
  {
    type noSlip;
  }
  Table_slave
  {
    type noSlip;
  }
  inlet
  {
    type fixedValue;
    value uniform (0.277164 -0.114805 0);
  }
  outlet
  {
    type zeroGradient;
  }
} 	// ************************************************************************* //

