/*--------------------------------*- C++ -*----------------------------------*\
  =========                 |
  \\      /  F ield         | OpenFOAM: The Open Source CFD Toolbox
   \\    /   O peration     | Website:  https://openfoam.org
    \\  /    A nd           | Version:  6
     \\/     M anipulation  |
\*---------------------------------------------------------------------------*/
FoamFile
{
    version     2.0;
    format      ascii;
    class       surfaceScalarField;
    location    "2500";
    object      phi;
}
// * * * * * * * * * * * * * * * * * * * * * * * * * * * * * * * * * * * * * //

dimensions      [1 0 -1 0 0 0 0];

internalField   nonuniform List<scalar> 
852
(
-0.00304092
0.0031007
-0.00412305
0.00108213
-0.00492647
0.000803426
-0.00553924
0.000612765
-0.00592963
0.00039039
-0.0060739
0.000144266
-0.00595106
-0.000122834
-0.00555083
-0.000400232
-0.00489961
-0.000651224
-0.0040629
-0.000836715
-0.00313151
-0.000931388
-0.00220171
-0.000929799
-0.0013587
-0.000843009
-0.00064194
-0.000716762
-0.00063988
-0.000806289
0.000809973
-0.000464121
-0.000342168
0.000212574
-0.000676696
0.000750356
-0.000537782
0.00111175
-0.000361391
0.00133893
-0.000227183
0.0014625
-0.000123565
0.0015228
-6.03044e-05
0.00155629
-3.34907e-05
0.00157658
-2.02858e-05
0.00158774
-1.116e-05
0.00159119
-3.45506e-06
0.0015851
6.09362e-06
0.00156073
2.4364e-05
0.00149457
6.61639e-05
0.00134722
0.000147356
0.0011057
0.000241517
0.000807759
0.000297939
0.00081274
-0.00216451
0.00542582
-0.00321028
0.0021279
-0.00403178
0.00162493
-0.00463315
0.00121413
-0.00501622
0.00077346
-0.00516584
0.000293885
-0.00505845
-0.000230221
-0.00469028
-0.000768407
-0.00409993
-0.00124158
-0.00335934
-0.00157731
-0.00255515
-0.00173557
-0.00176762
-0.00171733
-0.00106828
-0.00154235
-0.000533366
-0.00125167
-0.000304975
-0.000868272
5.28678e-05
-0.000357894
5.28157e-05
0.000378565
0.000442011
0.000818884
-0.000782488
0.00109051
-0.000948321
0.0013253
-0.000772575
0.00150553
-0.000541619
0.00161463
-0.000336287
0.00163235
-0.000141283
0.0016367
-6.46483e-05
0.00164198
-3.87788e-05
0.0016464
-2.46987e-05
0.00164928
-1.40398e-05
0.00165065
-4.82626e-06
0.00164963
7.11071e-06
0.00164242
3.15769e-05
0.00159839
0.000110197
0.00141096
0.00033478
0.00109057
0.000561911
0.00069389
0.000694619
0.00151927
-0.00151038
0.00718158
-0.00240862
0.00302613
-0.00313206
0.00234837
-0.00364173
0.0017238
-0.00396882
0.00110055
-0.00409231
0.000417376
-0.00396857
-0.000353968
-0.00359731
-0.00113966
-0.00304088
-0.00179801
-0.00238014
-0.00223804
-0.00169477
-0.00242094
-0.00104229
-0.00236981
-0.000469896
-0.00211475
-1.35004e-05
-0.00170807
0.000288733
-0.00117051
0.000442669
-0.000511831
0.000495485
0.00161325
-0.00115995
0.00184491
-0.00101415
0.00180362
-0.000907027
0.00179554
-0.000764495
0.00182057
-0.000566648
0.00184546
-0.000361176
0.00170433
0.00163983
0.00160121
0.00157666
0.00156278
0.0015581
0.00156537
0.0015971
0.00170745
0.00139965
0.000642579
0.00103203
0.000929533
0.000584143
0.00114251
0.00212252
-0.00104988
0.00854902
-0.00175798
0.00373423
-0.00222885
0.00281924
-0.00255248
0.00204743
-0.00274941
0.00129748
-0.00277801
0.000445979
-0.00257363
-0.000558355
-0.00216807
-0.00154521
-0.00165415
-0.00231194
-0.00110799
-0.0027842
-0.000587058
-0.00294188
-0.000116085
-0.00284079
0.000291283
-0.00252211
0.000633834
-0.00205062
0.000947441
-0.00148411
0.00131974
-0.000884129
0.00218413
-0.00036891
0.00263966
-0.000445312
0.00221067
-0.000730958
0.00206608
-0.000869561
0.00194145
-0.000782392
0.00183505
-0.000658099
0.00177667
-0.000508267
0.00174792
-0.000332425
0.00189102
-0.000143252
0.00198148
-9.06141e-05
0.00205267
-7.13499e-05
0.00210429
-5.17707e-05
0.00212016
-1.6021e-05
0.00207804
4.19658e-05
0.00195314
0.000124743
0.00171289
0.000240102
0.00130047
0.000412263
0.00114882
0.000794229
0.000823508
0.00125485
0.000331854
0.00163416
0.00247934
-0.000732018
0.00965991
-0.00126593
0.00426814
-0.001349
0.0029023
-0.0013842
0.00208262
-0.00136455
0.00127784
-0.0011808
0.000262222
-0.000811845
-0.000927309
-0.00037393
-0.00198313
4.53604e-05
-0.00273123
0.000401206
-0.00314005
0.00068318
-0.00322385
0.000896888
-0.0030545
0.00106488
-0.00269011
0.00121217
-0.00219791
0.00137208
-0.00164403
0.00159159
-0.00110364
0.00191112
-0.000688443
0.00203099
-0.000565183
0.00193091
-0.00063087
0.0017394
-0.00067805
0.0015774
-0.000620395
0.0014451
-0.000525804
0.00135516
-0.000418324
0.00132262
-0.00029988
0.00137596
-0.000196598
0.00143697
-0.000151619
0.0015008
-0.00013518
0.00156235
-0.000113322
0.00160864
-6.23133e-05
0.0016183
3.23051e-05
0.00157117
0.000171874
0.00145659
0.000354686
0.00127703
0.000591826
0.00111718
0.000954081
0.000941163
0.00143086
0.000540764
0.00203456
0.000415565
0.00260454
-0.00111581
0.00153117
-0.00157916
0.000463147
-0.00152516
-0.000635028
0.0107256
-0.000993427
0.00462654
-0.000533725
0.0024426
-9.78782e-05
0.00164677
0.000294431
0.000885529
0.00080689
-0.000250238
0.00133196
-0.00145238
0.00171516
-0.00236632
0.0019349
-0.00295097
0.00201253
-0.00321768
0.00198941
-0.00320074
0.00189514
-0.00296022
0.00176741
-0.00256238
0.00164326
-0.00207375
0.00155385
-0.00155462
0.00152077
-0.00107056
0.00153364
-0.000701305
0.00148912
-0.000520663
0.00134622
-0.000487969
0.00114945
-0.000481283
0.00097429
-0.000445234
0.000839912
-0.000391424
0.000754131
-0.000332542
0.000726853
-0.000272602
0.000757101
-0.000226846
0.000817235
-0.000211752
0.000893217
-0.000211161
0.000978645
-0.000198749
0.00106636
-0.000150032
0.00113999
-4.13205e-05
0.00118105
0.000130811
0.00119082
0.00034492
0.00117753
0.000605114
0.00119129
0.000940331
0.00128548
0.00133667
0.00146759
0.00185245
0.00195988
0.00211226
0.0022409
0.00125015
0.0018509
0.000853148
0.000390446
-0.000661739
0.0118652
-0.00051361
0.00447841
0.000720094
0.0012089
0.00164552
0.000721349
0.00250418
2.68718e-05
0.00329632
-0.00104239
0.00378036
-0.00193642
0.00395578
-0.00254175
0.00386901
-0.0028642
0.00358457
-0.00293325
0.00317404
-0.0027902
0.00270099
-0.00248718
0.00222315
-0.00208454
0.00178766
-0.00163826
0.00142358
-0.00119055
0.00114428
-0.000791255
0.000941332
-0.000498359
0.00076613
-0.000345461
0.000580819
-0.000302657
0.000396632
-0.000297096
0.000241302
-0.000289904
0.000127659
-0.000277781
5.99273e-05
-0.00026481
4.14003e-05
-0.000254074
6.72052e-05
-0.00025265
0.000121161
-0.000265707
0.000192179
-0.000282178
0.000278563
-0.000285132
0.000384491
-0.000255958
0.000514505
-0.000171334
0.000648263
-2.94587e-06
0.000776303
0.000216881
0.000916676
0.000464742
0.0011089
0.00074811
0.00140618
0.00103939
0.00188294
0.00137569
0.0026224
0.0013728
0.0032196
0.000652945
0.00328357
0.000789176
0.00374335
0.0027715
0.00962888
0.00355307
0.00369684
0.00418017
0.000581795
0.00519122
-0.000289708
0.00611733
-0.000899239
0.00657511
-0.00150016
0.00658963
-0.00195094
0.00623358
-0.0021857
0.00559687
-0.00222748
0.00477962
-0.00211601
0.0038807
-0.00189128
0.00298265
-0.00158913
0.00215215
-0.00125403
0.00143592
-0.000922037
0.000853202
-0.000607828
0.000412769
-0.000350822
0.000105823
-0.000191413
-0.000110767
-0.00012887
-0.000282442
-0.000130982
-0.000425965
-0.000153572
-0.000540642
-0.000175226
-0.000624512
-0.000193909
-0.000677764
-0.000211557
-0.000701497
-0.00023034
-0.000700972
-0.000253173
-0.000686368
-0.00028031
-0.000663673
-0.000304872
-0.000631509
-0.000317295
-0.000580105
-0.000307361
-0.000488556
-0.000262883
-0.00032603
-0.000165471
-0.000122795
1.36473e-05
0.000105055
0.000236892
0.000387381
0.000465785
0.000731018
0.000695755
0.00118768
0.000919033
0.00167136
0.000889121
0.00180784
0.000516462
0.000974484
0.00162253
0.00501099
0.0102218
0.0139147
0.0129799
0.00151661
0.0123579
0.000332251
0.0116003
-0.000141619
0.0105552
-0.000455092
0.009242
-0.000637715
0.0077734
-0.0007171
0.00625106
-0.00070515
0.00476257
-0.000627513
0.00338683
-0.000515547
0.00217348
-0.000375777
0.00115591
-0.000236471
0.000342729
-0.000108851
-0.000257979
-7.11926e-06
-0.000646413
3.76128e-05
-0.000874759
3.6934e-05
-0.00101942
1.5796e-05
-0.00113225
-1.81525e-05
-0.0012303
-5.55202e-05
-0.00131571
-8.98161e-05
-0.00138877
-0.000120848
-0.00145138
-0.000148953
-0.00150683
-0.000174891
-0.00156095
-0.000199049
-0.00162192
-0.000219336
-0.00169727
-0.000229524
-0.00179439
-0.000220171
-0.00192255
-0.000179202
-0.00209385
-9.15777e-05
-0.00231515
5.58276e-05
-0.00257259
0.00027109
-0.00290886
0.000573163
-0.00342436
0.000981281
-0.00421648
0.00148788
-0.00534057
0.00204312
-0.00690462
0.00245317
-0.00875877
0.00237061
-0.00813146
0.000995227
-0.00279481
0.00437488
0.00337809
0.0033575
0.00134963
0.00364682
-0.000430942
0.00358242
-0.000390695
0.00312209
-0.000177378
0.00243379
-2.88004e-05
0.00163022
9.84226e-05
0.000805339
0.000197364
3.48394e-05
0.000254954
-0.000610737
0.0002698
-0.0010932
0.000245992
-0.00142012
0.00021807
-0.00161199
0.000184752
-0.00171791
0.000143536
-0.0017843
0.000103319
-0.00183639
6.78892e-05
-0.00189061
3.6067e-05
-0.00195329
7.16646e-06
-0.00202251
-2.05957e-05
-0.00209493
-4.84258e-05
-0.00217202
-7.18612e-05
-0.00225663
-9.02845e-05
-0.00235226
-0.000103424
-0.00246182
-0.000109772
-0.00258565
-0.000105688
-0.00272043
-8.5397e-05
-0.00285755
-4.20789e-05
-0.00298222
3.30938e-05
-0.00308651
0.000160119
-0.00317486
0.000359443
-0.00325784
0.000656146
-0.0033474
0.00107084
-0.00344732
0.00158781
-0.00349877
0.00209456
-0.00341079
0.0023652
-0.00298561
0.00194543
-0.0016577
-0.000332685
-0.0043677
-0.000794665
0.0042571
-0.000352192
0.000907162
-0.00103072
0.00024759
-0.00155093
0.000129509
-0.001904
0.000175692
-0.00216604
0.000233248
-0.00235166
0.000284036
-0.0024799
0.000325615
-0.0025627
0.000337749
-0.002606
0.000313098
-0.00262222
0.000262215
-0.0026109
0.00020675
-0.00258048
0.00015433
-0.00254561
0.000108675
-0.00251589
7.35996e-05
-0.00249607
4.8066e-05
-0.0024887
2.87016e-05
-0.00249421
1.26768e-05
-0.00251079
-4.01804e-06
-0.00253841
-2.08031e-05
-0.0025762
-3.40726e-05
-0.0026233
-4.3184e-05
-0.00267866
-4.8056e-05
-0.0027405
-4.79379e-05
-0.00280521
-4.09787e-05
-0.00286657
-2.40277e-05
-0.00291581
7.1549e-06
-0.00293779
5.50753e-05
-0.00290942
0.000131752
-0.00280371
0.000253731
-0.0025853
0.000437742
-0.00222554
0.000711082
-0.00172698
0.00108924
-0.00107312
0.00144071
-4.32691e-05
0.00133535
0.00127624
0.000625923
0.00159459
-0.000651032
-0.00267978
-0.00789234
-0.0111515
-0.00683916
-0.0059039
-0.00563714
-0.00549223
-0.00530348
-0.00505881
-0.0047645
-0.00442935
-0.00408247
-0.00376032
-0.00348891
-0.00327269
-0.00310859
-0.00298986
-0.00290593
-0.00284731
-0.00280787
-0.00278432
-0.00277741
-0.0027873
-0.00281051
-0.00284293
-0.00288038
-0.00291788
-0.00294863
-0.00296266
-0.00294579
-0.00288129
-0.00274045
-0.00247798
-0.00203188
-0.00131284
-0.000216088
0.00123149
0.00257342
0.00320588
0.00256164
)
;

boundaryField
{
    floor
    {
        type            calculated;
        value           nonuniform List<scalar> 
29
(
0
0
0
0
0
0
0
0
0
0
0
0
0
0
0
0
0
0
0
0
-4.98037e-06
-1.26443e-05
-1.91001e-05
-2.49702e-05
-2.05984e-06
-3.68416e-06
-1.06019e-05
-1.129e-05
-1.02125e-05
)
;
    }
    ceiling
    {
        type            calculated;
        value           nonuniform List<scalar> 
43
(
-5.9224e-05
-5.70002e-05
-5.52161e-05
-2.8099e-05
-1.91644e-05
-1.54007e-05
-1.30619e-05
-1.14165e-05
-1.02771e-05
-9.53192e-06
-9.13244e-06
-9.04729e-06
-9.19958e-06
-9.46845e-06
-9.76712e-06
-1.00563e-05
-1.03218e-05
-1.05543e-05
-1.0741e-05
-1.08681e-05
-1.09271e-05
-1.09191e-05
-1.08599e-05
-1.07562e-05
-1.06137e-05
-1.04365e-05
-1.02278e-05
-9.98931e-06
-9.72041e-06
-9.41904e-06
-9.09135e-06
-8.73763e-06
-8.35789e-06
-7.95028e-06
-7.51039e-06
-6.8761e-06
-6.56738e-06
-6.53608e-06
-6.79466e-06
-6.43888e-06
6.32868e-06
3.90011e-06
-8.4339e-05
)
;
    }
    sWall
    {
        type            calculated;
        value           uniform -0.000279322;
    }
    nWall
    {
        type            calculated;
        value           nonuniform List<scalar> 6(-5.4213e-05 -6.46992e-05 -6.93343e-05 -8.48011e-05 -9.33327e-05 -0.000111704);
    }
    sideWalls
    {
        type            empty;
        value           nonuniform 0();
    }
    glass1
    {
        type            calculated;
        value           nonuniform List<scalar> 9(-5.9781e-05 -0.00016061 -0.00024538 -0.000317558 -0.000378877 -0.000430634 -0.000477895 -0.000535179 -0.000599198);
    }
    glass2
    {
        type            calculated;
        value           nonuniform List<scalar> 2(-0.000293149 -0.000325665);
    }
    sun
    {
        type            calculated;
        value           uniform 0;
    }
    heatsource1
    {
        type            calculated;
        value           nonuniform List<scalar> 3(2.05026e-07 2.04923e-07 2.04942e-07);
    }
    heatsource2
    {
        type            calculated;
        value           nonuniform List<scalar> 4(5.14184e-08 5.15257e-08 0 0);
    }
    Table_master
    {
        type            calculated;
        value           nonuniform List<scalar> 9(-1.53771e-07 -1.53864e-07 -1.53897e-07 -1.53919e-07 -1.53934e-07 -1.53945e-07 -1.53949e-07 -1.53942e-07 -1.53908e-07);
    }
    Table_slave
    {
        type            calculated;
        value           nonuniform List<scalar> 9(1.53629e-07 1.53651e-07 1.53628e-07 1.5361e-07 1.53605e-07 1.53609e-07 1.53629e-07 1.53678e-07 1.5377e-07);
    }
    inlet
    {
        type            calculated;
        value           uniform -0.00623636;
    }
    outlet
    {
        type            calculated;
        value           nonuniform List<scalar> 2(0.00823089 0.00331613);
    }
}


// ************************************************************************* //
