/*--------------------------------*- C++ -*----------------------------------*=========                 |
  \      /  F ield         | OpenFOAM: The Open Source CFD Toolbox
   \    /   O peration     | Website:  https://openfoam.org
    \  /    A nd           | Version:  6
     \/     M anipulation  |
\*---------------------------------------------------------------------------*/
FoamFile
{
    version     2.0;
    format      ascii;
    class       volScalarField;
    location    "2500";
    object      PMV;
}
// * * * * * * * * * * * * * * * * * * * * * * * * * * * * * * * * * * * * * //

dimensions      [0 0 0 0 0 0 0];

internalField   nonuniform List<scalar> 
459
(
1.6567061050365013
1.4404287539193805
1.414757278975023
1.3913135280091433
1.3758675965698615
1.3664741585188076
1.3637943368300727
1.367690320785378
1.3774511638389735
1.394707029227751
1.419888266355359
1.4555627001429594
1.5032517920157842
1.5395385748079242
1.5438380269567968
1.608311835580637
1.595419381936508
1.5906440589373192
1.5925542099533387
1.5949418578317571
1.5978069750019852
1.5959583831794275
1.5919093656914969
1.591240403397636
1.5920671921053815
1.593466450571942
1.5953082332421484
1.597705229923516
1.601019098622002
1.6062507563314627
1.6156181718097937
1.6250222308497237
1.628364026362719
1.6402982212841815
1.6190831074527796
1.461958618595305
1.4533019424429914
1.4324968004160217
1.419788967171838
1.4129166847359358
1.4106175833897099
1.412644260850733
1.417229864938497
1.4256003835918911
1.4403254571556239
1.4644261115985069
1.4987126317377226
1.5309392790213396
1.5318947818764983
1.5318947818764983
1.5314170312423032
1.5728602652131325
1.5858685550074987
1.5825255956002657
1.5838822073718506
1.5779845942229178
1.5735077474962311
1.5719851978245118
1.5725111074156253
1.5736254002077261
1.574409130481783
1.5750284687051743
1.5757329256499635
1.5765926241541135
1.577664755814136
1.5801797560942161
1.5878372120269437
1.606401927988104
1.6121315604389999
1.6041623672182685
1.661077447851845
1.4649294071795707
1.489194886610001
1.479754935062502
1.4767517644135066
1.4764222671298581
1.4779217300881675
1.4782703243763122
1.4740016408819392
1.4670289378278116
1.4637461304283619
1.4693027170557025
1.487499412868489
1.5184887809372236
1.5290282543038172
1.5314170312423032
1.5323725309221758
1.4814521528388431
1.521734141670602
1.53434569711192
1.5433101065598338
1.552875443789228
1.5597248014313492
1.5631160015818135
1.5711870390895173
1.5768394544921205
1.5794306893388972
1.5810204460143833
1.5815759104976264
1.5820220177375828
1.5806245310865326
1.5762861597140672
1.578114558730542
1.5959872765817291
1.5882816830611723
1.5431088472141559
1.7370602630280978
1.4705271037839973
1.5169969785565318
1.5271721758085148
1.5451355870664119
1.5606390014130007
1.5730520792462526
1.5679814205397653
1.5416269144931047
1.505266891065544
1.474953796630357
1.4590027141442603
1.4617794155567967
1.482934944859629
1.5142456580477375
1.5318947818764983
1.5164980458892423
1.4756456441192136
1.4750133689813827
1.5021623374783113
1.52857067847638
1.5497858975990155
1.5684521011489454
1.5820779620729508
1.5869312533520508
1.585423542878268
1.5848948538533776
1.5855590066579097
1.5869673853367388
1.590363812355706
1.597111924612644
1.6087427237553202
1.6309938249281102
1.6248948891980126
1.6105300106225429
1.568609159959127
1.4992130986918089
1.8269310606160898
1.4912602081331445
1.5445206483293354
1.5735383027981675
1.6213377330710184
1.6758534561616651
1.6994726319983962
1.6530899552180613
1.5816498006097914
1.5125144714110683
1.4629414202343116
1.4356715969224734
1.4327212129174136
1.4495772792398878
1.478452546278146
1.5050934034872747
1.5118278823207267
1.5084775099293835
1.5170470329498735
1.5415868907363095
1.5706706491289166
1.5980005700907354
1.6204403480242466
1.6370400055737493
1.6467542131896467
1.6493646508905708
1.6494835734096918
1.6491889757155893
1.648247811576263
1.6462514418418321
1.6460916378405157
1.647055569034216
1.6488678752426071
1.6354966625091838
1.6093605470527466
1.5507794835651536
1.5442912928152277
1.6737071812262398
1.6605633016309027
1.4988731106273452
1.9164308666109733
1.534203365931205
1.5970097988190186
1.6269770056456099
1.6956559375539582
1.7242775550898166
1.711805496262068
1.6326424475560846
1.554966627193704
1.4835778599868215
1.4308581465681072
1.4038546414983373
1.4045436139120167
1.4273598875521276
1.4652842679169245
1.5053705372099961
1.5360190470566872
1.5575704837384847
1.5813626193934553
1.6116880854502809
1.6307509643738713
1.6455488708309265
1.6574812463723485
1.6665489826339406
1.6741843773125669
1.6803877294692144
1.6846821420000393
1.6875449846650863
1.6889763761179264
1.6875449846650863
1.6842049938342232
1.6794333915007802
1.6709226904157486
1.6456487232372368
1.6117958184874068
1.550574089932198
1.5476651253193203
1.563581405856115
1.5628481331293351
1.5751241486649494
2.005692853738867
1.629290199645665
1.7485036344540055
1.722586257447603
1.7191218896796367
1.692788683083965
1.6387367244071884
1.5657497305270467
1.486762216830261
1.4183968214861031
1.3749353511690443
1.3626687057843725
1.381183528892217
1.4230722146140733
1.480306477760987
1.541771239052689
1.583480735775824
1.607356885535183
1.6288414178943569
1.647458137104782
1.6636855690800156
1.6765703253615818
1.686590712615711
1.6942246399179273
1.6999497086140503
1.703766239575298
1.7066285417114089
1.7075826240277914
1.7071055840218636
1.7042432956671234
1.6989955531131973
1.691839098974638
1.6837278434679677
1.671986387589531
1.6317000546182856
1.5747321357574053
1.5524466741542593
1.5422563417787882
1.5166761683452807
1.6010215128726923
2.1379760035361572
1.9484253977210018
1.9037562644350776
1.8043870626481517
1.7451473666289046
1.66324302559547
1.5587240432602547
1.4520845182364515
1.364181889877794
1.3106258414438607
1.2970067766461975
1.3230385063948695
1.3792786380299245
1.4560772991323123
1.546015771177531
1.588256329472124
1.6212029191952293
1.647458137104782
1.667503436860046
1.6832506909033258
1.6956559375539582
1.7051974009743793
1.7123528968478645
1.7171229367712102
1.720461824949829
1.722846674112939
1.723323636819827
1.722846674112939
1.7209387995254106
1.7175999278684395
1.7128299113572134
1.704720349467518
1.697087214921119
1.6875449846650863
1.6765703253615818
1.6655945199174742
1.6456872232547037
1.6342396265584465
1.5740619834540026
1.490254077408876
2.3351707996221753
2.2036107687611537
2.0381416889938557
1.8567663981088147
1.6484706638838404
1.43297402539921
1.2627018812139876
1.1591896857085302
1.1257811251077157
1.1536824884893773
1.228642401206794
1.335885473843986
1.4581858135441195
1.5414494586680023
1.5968519432749397
1.6407755631532428
1.6694123197746122
1.6889763761179264
1.7032891811943094
1.714260940889391
1.7223697090277772
1.7242406155984658
1.7234004318497662
1.7215270650922212
1.7191337933513062
1.715709434340805
1.710841679570184
1.7042782241960113
1.6962179856298973
1.687091154918881
1.6755714113452806
1.6634528232508763
1.6517357741129235
1.6379663176180261
1.6218602925780874
1.6081229682692357
1.5990972512412687
1.5939448548222135
1.5828599998958766
1.5530488209364335
-2.9744671309708566
-1.8359751129463138
-1.1372797829438543
-0.3897574651183219
0.1706053945958864
0.6050072399237181
0.9562826168814201
1.218222740510178
1.3808551656481323
1.5060940193333359
1.5801377140835196
1.6307509643738713
1.6520337550071666
1.6685319814937236
1.680736048342235
1.6896707129705517
1.69503174031177
1.6981585921304285
1.698989912526502
1.6978568588498897
1.6957935266508906
1.6931447569211218
1.689254558591845
1.6844584797791893
1.6792199569245914
1.673661916806352
1.6680426879667116
1.6631991189994217
1.6595313300062609
1.6564338392660607
1.6547863745735787
1.6537894983687251
1.6529847859284716
1.6550798830167275
1.665628264614922
1.700964165379292
1.7720577177305519
1.6162664737269297
-2.4669891292166155
-0.9988925989461386
0.04478808701961069
0.576895975117571
0.9011651763032099
1.1043326870089862
1.2578856524487112
1.3764099525333091
1.4682679436480697
1.536646834590203
1.5832399057800035
1.6155523594777639
1.6385731428742605
1.6546110241189593
1.6654412301631218
1.6732747789487177
1.6776313734407482
1.6806298177325556
1.6820894297618862
1.6829744966051337
1.6830819266274617
1.6823650072149512
1.681304930932771
1.679435054660895
1.6778132605214564
1.6756142896231432
1.6740850924038067
1.6736893893699372
1.674032283146068
1.6774992820875303
1.6844642305881894
1.6958676707679827
1.7078897223052867
1.7180976540912911
1.7299957054416166
1.7678173615851034
1.703144963573439
1.6546042747252305
-0.8559358400145134
-0.9949159041481468
-0.8745531793370693
0.3747276798470488
0.8886227814685007
1.1042601967198376
1.237321705725642
1.339933204781285
1.4223428656653732
1.4896919121777137
1.5439976907019561
1.5858159593416246
1.6156927385904758
1.636184152058919
1.6492460182614759
1.6566235324011533
1.6604219959668844
1.661876232283695
1.6621393609309956
1.6617188752669978
1.6614091545639
1.6612486145485603
1.6614243159413087
1.6613939716697048
1.6621379376753183
1.6626756859871763
1.6636244636062476
1.6657246588435122
1.6683602665637653
1.6730262805378642
1.6799257293345953
1.691318016487401
1.7125246673772163
1.750468026598015
1.7781578851677629
1.7843544012739718
1.7517594211445748
1.710044596580397
1.6685742637223395
1.6731402972573277
)
;

boundaryField
{
    ".*"
    {
        type            zeroGradient;
    }
}


// ************************************************************************* //
