// -*- C++ -*-
// File generated by PyFoam - sorry for the ugliness

FoamFile
{
 version 2.0;
 format ascii;
 class volVectorField;
 location "2500";
 object U;
}

dimensions [ 0 1 -1 0 0 0 0 ];

internalField nonuniform List<vector> 459
(
  (0.0332336 0.0882603 0)
  (-0.171736 0.0265114 0)
  (-0.19698 0.0178678 0)
  (-0.227706 0.0118715 0)
  (-0.249307 0.00531435 0)
  (-0.260813 -0.0015437 0)
  (-0.260765 -0.00870946 0)
  (-0.248527 -0.0161409 0)
  (-0.225052 -0.0230827 0)
  (-0.192416 -0.0284335 0)
  (-0.154083 -0.0313672 0)
  (-0.113844 -0.0315954 0)
  (-0.0752778 -0.0294545 0)
  (-0.0434333 -0.0263483 0)
  (-0.0333871 -0.0240481 0)
  (-0.0031419 0.00873505 0)
  (-0.0281557 -0.0195946 0)
  (-0.0024986 -0.0296389 0)
  (0.0219793 -0.0221441 0)
  (0.0394302 -0.0149775 0)
  (0.0527078 -0.00960738 0)
  (0.0607172 -0.00571139 0)
  (0.064743 -0.00367089 0)
  (0.0665392 -0.00280082 0)
  (0.0674481 -0.00238551 0)
  (0.0680155 -0.00211442 0)
  (0.068317 -0.00189149 0)
  (0.0682831 -0.00162443 0)
  (0.0676966 -0.00113269 0)
  (0.0659659 -1.84694e-05 0)
  (0.0618328 0.00227231 0)
  (0.0539358 0.00467569 0)
  (0.0467103 0.00665162 0)
  (-0.0141993 0.0229943 0)
  (0.209528 0.180325 0)
  (-0.158753 0.0697744 0)
  (-0.15746 0.0529985 0)
  (-0.18888 0.0403558 0)
  (-0.210067 0.0261743 0)
  (-0.221667 0.0105201 0)
  (-0.222164 -0.00669319 0)
  (-0.21092 -0.024547 0)
  (-0.18946 -0.0405766 0)
  (-0.160184 -0.0523486 0)
  (-0.126579 -0.0583283 0)
  (-0.0921043 -0.0582587 0)
  (-0.059894 -0.0527387 0)
  (-0.0333451 -0.0433169 0)
  (-0.0167065 -0.0318703 0)
  (-0.00308238 -0.0139052 0)
  (-0.00369572 0.0170858 0)
  (0.072248 0.0366717 0)
  (0.0314091 -0.0207554 0)
  (0.0392756 -0.0341504 0)
  (0.0513959 -0.0295386 0)
  (0.0609168 -0.020658 0)
  (0.0674401 -0.0123695 0)
  (0.0701422 -0.0051423 0)
  (0.0705709 -0.00112112 0)
  (0.0704672 0.00056005 0)
  (0.0705493 0.0013089 0)
  (0.0707327 0.00176286 0)
  (0.0708637 0.00214348 0)
  (0.0708933 0.00263337 0)
  (0.0707661 0.00359413 0)
  (0.069917 0.00598502 0)
  (0.0657607 0.0126236 0)
  (0.0553214 0.0181477 0)
  (0.0506029 0.0218325 0)
  (-0.0553027 0.0495449 0)
  (0.370666 0.269308 0)
  (-0.173724 0.110506 0)
  (-0.11771 0.0852396 0)
  (-0.14758 0.062937 0)
  (-0.16605 0.0397092 0)
  (-0.176286 0.0144231 0)
  (-0.17575 -0.0133201 0)
  (-0.163668 -0.0415518 0)
  (-0.142734 -0.0659281 0)
  (-0.115959 -0.0827992 0)
  (-0.0868509 -0.0903453 0)
  (-0.0580978 -0.0888968 0)
  (-0.0317314 -0.0795559 0)
  (-0.0098291 -0.0642041 0)
  (0.00659936 -0.0433099 0)
  (0.0178542 -0.0177656 0)
  (0.0235954 0.019164 0)
  (0.120624 -0.0371084 0)
  (0.0796167 -0.0448037 0)
  (0.0739003 -0.042792 0)
  (0.0759763 -0.035303 0)
  (0.0776005 -0.0257437 0)
  (0.0787235 -0.0174594 0)
  (0.0771226 -0.0138864 0)
  (0.0724969 -0.00971565 0)
  (0.0692492 -0.00744338 0)
  (0.0678098 -0.00613829 0)
  (0.0672091 -0.00529972 0)
  (0.0669232 -0.00471062 0)
  (0.0669709 -0.00416049 0)
  (0.0678519 -0.00326165 0)
  (0.0708431 6.39051e-05 0)
  (0.0684963 0.0181807 0)
  (0.0538244 0.0307666 0)
  (0.0571669 0.0390192 0)
  (-0.0920435 0.0767177 0)
  (0.515451 0.34063 0)
  (-0.206588 0.14644 0)
  (-0.0765062 0.112303 0)
  (-0.103755 0.0816718 0)
  (-0.116451 0.0515738 0)
  (-0.122373 0.018045 0)
  (-0.117077 -0.020146 0)
  (-0.10189 -0.0586796 0)
  (-0.0811571 -0.0900501 0)
  (-0.0580214 -0.110228 0)
  (-0.035434 -0.117908 0)
  (-0.0145598 -0.114662 0)
  (0.00427399 -0.101773 0)
  (0.019899 -0.0822025 0)
  (0.0335164 -0.0580791 0)
  (0.0484564 -0.030784 0)
  (0.0711317 -0.000629877 0)
  (0.103751 0.013274 0)
  (0.109729 -0.029132 0)
  (0.0941731 -0.0389449 0)
  (0.0847771 -0.0365025 0)
  (0.0801356 -0.030898 0)
  (0.0769835 -0.0234737 0)
  (0.0753535 -0.0144089 0)
  (0.0774028 -0.00857137 0)
  (0.0825551 -0.0065586 0)
  (0.0867913 -0.0053864 0)
  (0.0895464 -0.00446575 0)
  (0.091066 -0.00335827 0)
  (0.0907037 -0.00179074 0)
  (0.0874242 0.0004372 0)
  (0.0799799 0.00362832 0)
  (0.065364 0.00839056 0)
  (0.0530094 0.0297947 0)
  (0.0403187 0.0472817 0)
  (0.0606861 0.0604678 0)
  (-0.134907 0.099991 0)
  (0.6396 0.395729 0)
  (-0.247068 0.175655 0)
  (-0.0367572 0.127274 0)
  (-0.0579737 0.0917317 0)
  (-0.0620881 0.0574959 0)
  (-0.0596159 0.0173584 0)
  (-0.0426967 -0.0310049 0)
  (-0.0233484 -0.0770039 0)
  (-0.00466244 -0.111154 0)
  (0.0118392 -0.130869 0)
  (0.0244984 -0.135841 0)
  (0.0344686 -0.129711 0)
  (0.0421631 -0.114864 0)
  (0.0484734 -0.0939886 0)
  (0.0546293 -0.0697524 0)
  (0.0625478 -0.0453194 0)
  (0.0749388 -0.0266933 0)
  (0.0858321 -0.025598 0)
  (0.086895 -0.0342722 0)
  (0.0797967 -0.0346312 0)
  (0.0710981 -0.0306289 0)
  (0.0643563 -0.025599 0)
  (0.0595742 -0.0199338 0)
  (0.0570467 -0.0136778 0)
  (0.0573552 -0.0077455 0)
  (0.0600862 -0.00489333 0)
  (0.0630605 -0.00372403 0)
  (0.06581 -0.00264465 0)
  (0.0681792 -0.000618897 0)
  (0.0696884 0.00282402 0)
  (0.0691195 0.00771757 0)
  (0.0659547 0.014213 0)
  (0.0595038 0.0230485 0)
  (0.051828 0.039472 0)
  (0.0402524 0.0590981 0)
  (0.0683037 0.0805088 0)
  (-0.0348464 0.112532 0)
  (0.0474071 0.0269853 0)
  (-0.0691332 -0.0378768 0)
  (-0.28606 -0.0614369 0)
  (0.728948 0.441402 0)
  (-0.286281 0.194848 0)
  (-0.00690438 0.121502 0)
  (-0.00961607 0.0895907 0)
  (-0.000680594 0.0539992 0)
  (0.0198623 0.00479661 0)
  (0.0495175 -0.0508221 0)
  (0.0692222 -0.0948928 0)
  (0.0814708 -0.124378 0)
  (0.0869848 -0.13933 0)
  (0.0871596 -0.141149 0)
  (0.0837779 -0.13244 0)
  (0.0783509 -0.11602 0)
  (0.0724715 -0.0948185 0)
  (0.0675882 -0.0715945 0)
  (0.0649721 -0.0493887 0)
  (0.0653475 -0.0322862 0)
  (0.0655819 -0.0253112 0)
  (0.0617164 -0.0252087 0)
  (0.0539493 -0.0249382 0)
  (0.0453861 -0.0226505 0)
  (0.0384519 -0.0194481 0)
  (0.0336669 -0.01587 0)
  (0.0312929 -0.0120775 0)
  (0.0314192 -0.0088591 0)
  (0.0335504 -0.00761106 0)
  (0.0365816 -0.0072869 0)
  (0.0400601 -0.00653733 0)
  (0.0437497 -0.00430309 0)
  (0.0474681 0.000252727 0)
  (0.0502798 0.0071164 0)
  (0.0514602 0.0159067 0)
  (0.0513508 0.0269637 0)
  (0.0515096 0.0422314 0)
  (0.0491466 0.0613396 0)
  (0.0764611 0.0861174 0)
  (0.0487758 0.105292 0)
  (0.0974807 0.0698085 0)
  (0.122232 0.0453508 0)
  (-0.138522 -0.0100797 0)
  (0.785839 0.483165 0)
  (-0.304113 0.179255 0)
  (0.0241165 0.0652428 0)
  (0.0578943 0.0549554 0)
  (0.0841913 0.0288778 0)
  (0.128392 -0.0253736 0)
  (0.156978 -0.0736909 0)
  (0.170684 -0.107956 0)
  (0.171562 -0.128106 0)
  (0.162319 -0.135541 0)
  (0.146133 -0.132126 0)
  (0.126115 -0.120317 0)
  (0.104963 -0.102895 0)
  (0.0849197 -0.0825239 0)
  (0.0675744 -0.0614118 0)
  (0.0539051 -0.0419961 0)
  (0.0441312 -0.0272204 0)
  (0.0366108 -0.0194899 0)
  (0.0290448 -0.0172208 0)
  (0.020913 -0.0165592 0)
  (0.0133544 -0.0154481 0)
  (0.00745482 -0.0139937 0)
  (0.00353907 -0.0124737 0)
  (0.00174143 -0.0110209 0)
  (0.00201313 -0.0101109 0)
  (0.00385417 -0.0102506 0)
  (0.00656354 -0.0107357 0)
  (0.00987407 -0.0106014 0)
  (0.013817 -0.00891179 0)
  (0.0185206 -0.00459486 0)
  (0.0252374 0.00323779 0)
  (0.0308967 0.0128949 0)
  (0.036433 0.0240278 0)
  (0.0437605 0.0375477 0)
  (0.0511247 0.0531318 0)
  (0.0762799 0.0732913 0)
  (0.0885807 0.0806325 0)
  (0.12536 0.0523787 0)
  (0.167934 0.0428591 0)
  (-0.0321006 0.0967003 0)
  (0.893823 0.482554 0)
  (-0.0560654 0.157613 0)
  (0.119655 -0.0236533 0)
  (0.208252 -0.0598542 0)
  (0.254352 -0.0734351 0)
  (0.279164 -0.0901145 0)
  (0.287771 -0.10548 0)
  (0.279671 -0.115152 0)
  (0.257085 -0.118004 0)
  (0.224296 -0.114263 0)
  (0.186032 -0.104787 0)
  (0.146403 -0.0908318 0)
  (0.108705 -0.0742522 0)
  (0.0752502 -0.056846 0)
  (0.0472459 -0.0398292 0)
  (0.0254666 -0.0249576 0)
  (0.00998382 -0.0145666 0)
  (-0.000748511 -0.00963734 0)
  (-0.0087462 -0.00870001 0)
  (-0.0154661 -0.00904521 0)
  (-0.0210743 -0.00936923 0)
  (-0.0253599 -0.00959059 0)
  (-0.0282897 -0.00983361 0)
  (-0.0298832 -0.0102176 0)
  (-0.0302854 -0.0109376 0)
  (-0.0298861 -0.012057 0)
  (-0.0290861 -0.0132104 0)
  (-0.0279868 -0.0139028 0)
  (-0.0264011 -0.013619 0)
  (-0.0238776 -0.0117466 0)
  (-0.0192534 -0.00748831 0)
  (-0.00872823 -0.000188547 0)
  (-0.000415801 0.00855428 0)
  (0.0108175 0.0171589 0)
  (0.0224053 0.0248519 0)
  (0.0437073 0.0336242 0)
  (0.0623058 0.0258367 0)
  (0.0812422 -0.00558459 0)
  (0.142835 0.044865 0)
  (-0.455319 0.222046 0)
  (1.04615 0.426937 0)
  (0.495565 0.278733 0)
  (0.514732 0.172839 0)
  (0.549811 0.0945422 0)
  (0.529693 0.0405239 0)
  (0.481825 -0.00220153 0)
  (0.426502 -0.0333674 0)
  (0.366042 -0.0522587 0)
  (0.301292 -0.0602124 0)
  (0.235657 -0.0597722 0)
  (0.173243 -0.0536516 0)
  (0.116955 -0.0438485 0)
  (0.0690579 -0.0325547 0)
  (0.0300222 -0.0214554 0)
  (-0.000906977 -0.0114024 0)
  (-0.0218578 -0.00469624 0)
  (-0.0338148 -0.00190876 0)
  (-0.0411391 -0.00153578 0)
  (-0.0463855 -0.00248785 0)
  (-0.0508921 -0.00384692 0)
  (-0.0548513 -0.00518337 0)
  (-0.0582544 -0.00646739 0)
  (-0.061138 -0.00773153 0)
  (-0.0636101 -0.00900707 0)
  (-0.0658824 -0.0103159 0)
  (-0.0682892 -0.0115748 0)
  (-0.0711761 -0.0125014 0)
  (-0.0748339 -0.0126838 0)
  (-0.0795849 -0.0116003 0)
  (-0.0859217 -0.00857878 0)
  (-0.094548 -0.00281034 0)
  (-0.105086 0.00622575 0)
  (-0.116037 0.018142 0)
  (-0.13335 0.03327 0)
  (-0.160709 0.0514047 0)
  (-0.200526 0.0704657 0)
  (-0.256756 0.0851145 0)
  (-0.320104 0.0923728 0)
  (-0.391677 0.0929854 0)
  (-0.660314 0.0874842 0)
  (-0.180105 -0.0206052 0)
  (0.100198 -0.0358062 0)
  (0.177027 -0.0552315 0)
  (0.164023 -0.0476866 0)
  (0.144721 -0.0345225 0)
  (0.120572 -0.0225619 0)
  (0.0885569 -0.0123541 0)
  (0.0527146 -0.00441403 0)
  (0.0178813 0.00101126 0)
  (-0.014959 0.00455319 0)
  (-0.0384593 0.00570668 0)
  (-0.0555909 0.00565214 0)
  (-0.0665353 0.00454699 0)
  (-0.0722858 0.0023539 0)
  (-0.0755589 -0.00022655 0)
  (-0.0778801 -0.00287078 0)
  (-0.0800599 -0.00553055 0)
  (-0.0825288 -0.00796723 0)
  (-0.0854086 -0.00989664 0)
  (-0.0884749 -0.0113573 0)
  (-0.0916663 -0.0124226 0)
  (-0.0950985 -0.0131378 0)
  (-0.0989356 -0.013524 0)
  (-0.103341 -0.0135015 0)
  (-0.108399 -0.0128295 0)
  (-0.114051 -0.0111139 0)
  (-0.120045 -0.00784868 0)
  (-0.125906 -0.00247829 0)
  (-0.130905 0.00535139 0)
  (-0.134668 0.0159969 0)
  (-0.13766 0.0304665 0)
  (-0.140466 0.0492198 0)
  (-0.144214 0.0711983 0)
  (-0.149537 0.0917667 0)
  (-0.152915 0.0994631 0)
  (-0.13512 0.0722895 0)
  (-0.0820487 -0.0315283 0)
  (-0.289198 -0.22554 0)
  (0.035762 0.198075 0)
  (0.0132565 0.0637843 0)
  (-0.0324276 0.0118696 0)
  (-0.0560625 0.0110712 0)
  (-0.0743395 0.0171605 0)
  (-0.0877944 0.0217613 0)
  (-0.0967935 0.0255443 0)
  (-0.103566 0.0286913 0)
  (-0.108411 0.030623 0)
  (-0.11161 0.0310863 0)
  (-0.112942 0.030588 0)
  (-0.112946 0.030356 0)
  (-0.111853 0.0305585 0)
  (-0.110253 0.0312445 0)
  (-0.108765 0.0326026 0)
  (-0.107658 0.0344652 0)
  (-0.107074 0.036345 0)
  (-0.107055 0.0376672 0)
  (-0.107516 0.0378375 0)
  (-0.108466 0.0368682 0)
  (-0.109868 0.0354217 0)
  (-0.111697 0.0336685 0)
  (-0.113919 0.0317084 0)
  (-0.116478 0.0296373 0)
  (-0.119268 0.0275654 0)
  (-0.122104 0.0256073 0)
  (-0.124691 0.0238495 0)
  (-0.126477 0.0225295 0)
  (-0.126546 0.0230845 0)
  (-0.123577 0.0268197 0)
  (-0.115953 0.0349072 0)
  (-0.10251 0.0484524 0)
  (-0.083611 0.0672423 0)
  (-0.0605384 0.0862975 0)
  (-0.0363487 0.0971983 0)
  (0.00707562 0.0797054 0)
  (0.144592 0.00348031 0)
  (-0.20782 -0.13835 0)
  (-0.092727 -0.34714 0)
  (-0.44732 -0.138581 0)
  (-0.334042 0.0444964 0)
  (-0.292146 -0.0443037 0)
  (-0.251292 -0.0509424 0)
  (-0.239996 -0.0436648 0)
  (-0.231996 -0.0367367 0)
  (-0.222699 -0.0324097 0)
  (-0.21107 -0.0303036 0)
  (-0.197401 -0.0305449 0)
  (-0.182687 -0.0336811 0)
  (-0.168352 -0.0397099 0)
  (-0.155631 -0.0478421 0)
  (-0.14514 -0.0567783 0)
  (-0.136957 -0.0659621 0)
  (-0.130909 -0.0751115 0)
  (-0.126596 -0.0838117 0)
  (-0.123554 -0.0916089 0)
  (-0.121442 -0.098028 0)
  (-0.120077 -0.102594 0)
  (-0.119433 -0.104976 0)
  (-0.119521 -0.105198 0)
  (-0.120272 -0.103983 0)
  (-0.121513 -0.101558 0)
  (-0.123076 -0.098095 0)
  (-0.124772 -0.0936796 0)
  (-0.126348 -0.0882996 0)
  (-0.127452 -0.0818233 0)
  (-0.127628 -0.0739697 0)
  (-0.126271 -0.0645308 0)
  (-0.122249 -0.0541166 0)
  (-0.113396 -0.0425499 0)
  (-0.0967511 -0.0293071 0)
  (-0.0701974 -0.0134041 0)
  (-0.0351722 0.00590031 0)
  (0.0241587 0.0307297 0)
  (0.0747222 0.0314975 0)
  (0.123341 0.00972637 0)
  (0.176801 -0.0311822 0)
  (-0.17806 -0.0994689 0)
)
;

boundaryField
{
  floor
  {
    type noSlip;
  }
  ceiling
  {
    type noSlip;
  }
  sWall
  {
    type noSlip;
  }
  nWall
  {
    type noSlip;
  }
  sideWalls
  {
    type empty;
  }
  glass1
  {
    type noSlip;
  }
  glass2
  {
    type noSlip;
  }
  sun
  {
    type noSlip;
  }
  heatsource1
  {
    type noSlip;
  }
  heatsource2
  {
    type noSlip;
  }
  Table_master
  {
    type noSlip;
  }
  Table_slave
  {
    type noSlip;
  }
  inlet
  {
    type fixedValue;
    value uniform (0.277164 -0.114805 0);
  }
  outlet
  {
    type zeroGradient;
  }
} 	// ************************************************************************* //

