/*--------------------------------*- C++ -*----------------------------------*\
  =========                 |
  \\      /  F ield         | OpenFOAM: The Open Source CFD Toolbox
   \\    /   O peration     | Website:  https://openfoam.org
    \\  /    A nd           | Version:  6
     \\/     M anipulation  |
\*---------------------------------------------------------------------------*/
FoamFile
{
    version     2.0;
    format      ascii;
    class       surfaceScalarField;
    location    "3000";
    object      phi;
}
// * * * * * * * * * * * * * * * * * * * * * * * * * * * * * * * * * * * * * //

dimensions      [1 0 -1 0 0 0 0];

internalField   nonuniform List<scalar> 
852
(
-0.00304137
0.00310116
-0.00412367
0.00108231
-0.00492705
0.000803378
-0.00553954
0.000612485
-0.00592934
0.000389806
-0.00607265
0.000143302
-0.00594842
-0.000124224
-0.00554647
-0.000401955
-0.00489345
-0.000653019
-0.00405518
-0.000838272
-0.0031227
-0.000932472
-0.00219252
-0.000930184
-0.00135021
-0.000842309
-0.000635987
-0.000714223
-0.000633923
-0.000808451
0.000812138
-0.000468399
-0.000340053
0.00020753
-0.000675929
0.000745794
-0.000538264
0.0011076
-0.000361804
0.00133511
-0.000227517
0.00145886
-0.000123749
0.00151922
-6.0359e-05
0.00155279
-3.3569e-05
0.0015733
-2.05034e-05
0.00158464
-1.1348e-05
0.00158822
-3.58053e-06
0.00158223
5.99652e-06
0.001558
2.42255e-05
0.0014921
6.59037e-05
0.00134526
0.000146838
0.00110448
0.000240781
0.000807478
0.000297002
0.000812463
-0.00216492
0.00542674
-0.00321098
0.00212836
-0.00403256
0.00162496
-0.00463377
0.00121369
-0.00501636
0.000772402
-0.00516511
0.000292047
-0.00505641
-0.00023292
-0.00468665
-0.000771721
-0.00409472
-0.00124494
-0.00335289
-0.00158011
-0.00254792
-0.00173744
-0.00176013
-0.00171798
-0.00106108
-0.00154136
-0.000526571
-0.00124873
-0.000297072
-0.000863422
5.65525e-05
-0.000353676
5.6501e-05
0.000375214
0.000447536
0.000815362
-0.000780201
0.00108752
-0.000948085
0.0013224
-0.000773146
0.00150298
-0.000542378
0.00161248
-0.000337018
0.00163042
-0.000141693
0.00163485
-6.47883e-05
0.00164012
-3.88409e-05
0.00164439
-2.47719e-05
0.00164715
-1.41048e-05
0.00164844
-4.87017e-06
0.00164743
7.00118e-06
0.00164027
3.13894e-05
0.00159636
0.000109812
0.00140919
0.000334009
0.00108938
0.000560584
0.000693462
0.000692924
0.00151858
-0.00151072
0.0071829
-0.00240925
0.00302689
-0.00313288
0.00234859
-0.00364253
0.00172334
-0.00396928
0.00109916
-0.00409197
0.000414742
-0.00396692
-0.000357977
-0.00359418
-0.00114446
-0.00303642
-0.0018027
-0.00237483
-0.0022417
-0.00168906
-0.00242321
-0.00103657
-0.00237047
-0.000464488
-0.00211344
-8.25518e-06
-0.00170497
0.000293834
-0.00116551
0.000446439
-0.000506281
0.00050294
0.00161369
-0.00115484
0.00184546
-0.00101197
0.00180378
-0.000906407
0.0017954
-0.000764764
0.00182039
-0.000567371
0.00184553
-0.000362158
0.00170399
0.00163936
0.00160067
0.00157605
0.0015621
0.00155739
0.00156454
0.00159609
0.00170605
0.00139813
0.000641932
0.00103066
0.000928049
0.00058356
0.00114003
0.00212126
-0.00105012
0.00855066
-0.00175845
0.00373522
-0.00222955
0.00281969
-0.00255328
0.00204707
-0.00275
0.00129588
-0.00277779
0.000442531
-0.00257205
-0.000563721
-0.00216528
-0.00155123
-0.00165047
-0.00231751
-0.00110395
-0.00278822
-0.000582957
-0.0029442
-0.000112145
-0.00284128
0.000294961
-0.00252054
0.00063728
-0.00204729
0.00095098
-0.00147921
0.00132316
-0.000878464
0.00218918
-0.000363076
0.00264118
-0.000441776
0.00221372
-0.000727383
0.00206897
-0.000867222
0.00194385
-0.000781288
0.00183696
-0.000657872
0.0017782
-0.000508619
0.00174907
-0.00033302
0.00189248
-0.000143563
0.00198302
-9.06949e-05
0.00205409
-7.12271e-05
0.00210543
-5.14904e-05
0.00212099
-1.57195e-05
0.00207853
4.23156e-05
0.00195318
0.000125194
0.00171249
0.000240535
0.00129975
0.000412589
0.00114762
0.000794054
0.00082198
0.00125369
0.000330235
0.00163177
0.00247649
-0.000732161
0.0096618
-0.00126623
0.00426929
-0.00134946
0.00290292
-0.00138476
0.00208237
-0.00136498
0.0012761
-0.00118013
0.000257679
-0.000809923
-0.000933928
-0.000371399
-0.00198975
4.79841e-05
-0.00273689
0.00040367
-0.00314391
0.000685358
-0.00322589
0.000898721
-0.00305464
0.00106656
-0.00268839
0.00121385
-0.00219457
0.00137405
-0.00163941
0.00159398
-0.0010984
0.00191421
-0.000683308
0.00203351
-0.000561077
0.00193373
-0.000627601
0.0017422
-0.000675686
0.00157988
-0.000618975
0.00144718
-0.000525166
0.00135682
-0.000418265
0.00132385
-0.000300044
0.00137688
-0.000196594
0.00143762
-0.000151435
0.00150117
-0.000134782
0.0015625
-0.000112813
0.00160861
-6.18377e-05
0.0016181
3.28281e-05
0.0015708
0.000172498
0.00145612
0.000355211
0.00127654
0.000592173
0.00111658
0.000954016
0.000940357
0.00142991
0.000539567
0.00203256
0.000414386
0.00260167
-0.00111528
0.00152946
-0.00157863
0.000463143
-0.00152461
-0.000635105
0.0107277
-0.000993532
0.00462772
-0.000533766
0.00244315
-9.75878e-05
0.00164619
0.000295881
0.000882631
0.000809421
-0.000255861
0.00133434
-0.00145884
0.00171702
-0.00237244
0.00193604
-0.00295591
0.00201308
-0.00322094
0.00198939
-0.0032022
0.00189468
-0.00295993
0.00176677
-0.00256048
0.00164271
-0.00207051
0.00155367
-0.00155037
0.00152117
-0.0010659
0.00153472
-0.000696855
0.00149056
-0.000516922
0.00134793
-0.000484964
0.00115126
-0.000479019
0.000975974
-0.000443689
0.00084131
-0.000390503
0.00075515
-0.000332104
0.000727443
-0.000272337
0.000757236
-0.000226387
0.000817017
-0.000211216
0.000892756
-0.00021052
0.000978101
-0.000198159
0.00106585
-0.000149586
0.00113957
-4.089e-05
0.00118067
0.000131393
0.00119059
0.00034529
0.00117752
0.000605243
0.00119151
0.000940031
0.00128568
0.00133574
0.00146764
0.0018506
0.00195991
0.0021094
0.00224124
0.00124814
0.00185159
0.000852791
0.000391693
-0.000661695
0.0118674
-0.00051339
0.00447942
0.000720722
0.00120904
0.00164662
0.000720297
0.00250624
2.30055e-05
0.00329882
-0.00104844
0.00378224
-0.00194226
0.00395648
-0.00254668
0.00386839
-0.00286782
0.00358282
-0.00293537
0.00317141
-0.00279079
0.00269781
-0.00248633
0.00221978
-0.00208246
0.0017845
-0.00163522
0.0014209
-0.00118677
0.00114237
-0.000787363
0.000940354
-0.000494843
0.000765945
-0.000342513
0.000581188
-0.000300207
0.000397297
-0.000295128
0.000242012
-0.000288403
0.000128198
-0.000276689
6.01435e-05
-0.00026405
4.12654e-05
-0.000253459
6.67614e-05
-0.000251883
0.000120462
-0.000264917
0.000191373
-0.000281432
0.000277765
-0.000284551
0.000383793
-0.000255614
0.000514038
-0.000171135
0.000648079
-2.6487e-06
0.000776515
0.000216854
0.000917263
0.000464494
0.00110992
0.000747374
0.00140729
0.00103838
0.00188398
0.00137391
0.00262321
0.00137016
0.0032204
0.000650951
0.00328396
0.00078923
0.00374498
0.0027725
0.00963023
0.00355448
0.00369744
0.00418261
0.000580914
0.00519544
-0.000292535
0.0061219
-0.000903457
0.00657786
-0.00150439
0.00659027
-0.00195468
0.00623213
-0.00218853
0.00559354
-0.00222924
0.00477485
-0.00211667
0.00387497
-0.00189092
0.00297644
-0.00158779
0.00214593
-0.00125195
0.00143016
-0.000919452
0.000848162
-0.00060477
0.000408893
-0.000348095
0.000103268
-0.000189217
-0.000112213
-0.000127032
-0.000283144
-0.000129277
-0.000426268
-0.000152004
-0.000540768
-0.000173904
-0.000624653
-0.000192804
-0.000678053
-0.000210651
-0.000701964
-0.000229548
-0.000701523
-0.000252324
-0.000686971
-0.000279469
-0.000664274
-0.000304129
-0.000632095
-0.000316729
-0.000580642
-0.000307067
-0.000489
-0.000262777
-0.000326125
-0.000165524
-0.000122443
1.31719e-05
0.000105814
0.000236236
0.000388323
0.000464866
0.000731824
0.000694873
0.00118775
0.00091799
0.00166996
0.000887949
0.00180528
0.000515629
0.00097224
0.00162227
0.00501046
0.0102233
0.0139169
0.0129814
0.00151639
0.0123589
0.000329981
0.0115995
-0.000144075
0.0105525
-0.000457408
0.00923736
-0.000639545
0.00776707
-0.000718243
0.00624339
-0.00070556
0.00475403
-0.00062731
0.00337797
-0.000514861
0.0021647
-0.000374524
0.00114763
-0.000234878
0.000335299
-0.000107122
-0.000263982
-5.48948e-06
-0.000650709
3.86326e-05
-0.000877715
3.77884e-05
-0.00102143
1.66843e-05
-0.0011336
-1.71106e-05
-0.00123118
-5.44171e-05
-0.00131624
-8.8848e-05
-0.00138907
-0.000119975
-0.00145155
-0.000148172
-0.00150696
-0.000174139
-0.00156103
-0.000198247
-0.00162196
-0.000218544
-0.00169729
-0.000228795
-0.00179446
-0.000219564
-0.00192275
-0.000178775
-0.00209426
-9.1265e-05
-0.00231576
5.59796e-05
-0.00257362
0.000271024
-0.00291038
0.000573
-0.00342663
0.000981118
-0.00421952
0.00148776
-0.00534432
0.00204279
-0.00690887
0.0024525
-0.00876295
0.00236972
-0.00813426
0.000993577
-0.00279802
0.00437538
0.00337755
0.00335717
0.00134819
0.00364502
-0.000431933
0.00357917
-0.000391552
0.00311742
-0.000177797
0.00242775
-2.85749e-05
0.00162305
9.9141e-05
0.000797506
0.000198235
2.69054e-05
0.00025574
-0.000618025
0.000270407
-0.00109928
0.000246379
-0.00142485
0.000218442
-0.00161541
0.000185076
-0.00172056
0.000143781
-0.00178643
0.000103661
-0.00183814
6.83913e-05
-0.0018919
3.66523e-05
-0.00195403
7.71153e-06
-0.00202272
-2.01538e-05
-0.00209469
-4.80063e-05
-0.00217147
-7.13995e-05
-0.00225589
-8.97172e-05
-0.00235135
-0.000102784
-0.00246075
-0.000109141
-0.00258444
-0.000105105
-0.00271913
-8.48728e-05
-0.00285622
-4.16885e-05
-0.00298088
3.33975e-05
-0.00308522
0.000160314
-0.00317371
0.00035952
-0.00325689
0.000656178
-0.00334671
0.00107094
-0.00344692
0.00158796
-0.00349851
0.00209439
-0.00341027
0.00236426
-0.00298391
0.00194335
-0.00165589
-0.000334439
-0.0043691
-0.000795573
0.00425743
-0.000354482
0.0009071
-0.00103379
0.000247377
-0.00155478
0.000129435
-0.00190843
0.000175856
-0.00217062
0.000233612
-0.00235597
0.000284494
-0.00248381
0.000326072
-0.00256611
0.000338036
-0.00260885
0.000313156
-0.00262461
0.000262131
-0.00261284
0.000206677
-0.0025821
0.000154331
-0.00254708
0.00010876
-0.0025172
7.37813e-05
-0.00249712
4.83156e-05
-0.00248938
2.89099e-05
-0.00249442
1.27564e-05
-0.00251058
-3.9964e-06
-0.00253778
-2.08093e-05
-0.00257521
-3.39652e-05
-0.002622
-4.29307e-05
-0.00267702
-4.77611e-05
-0.0027385
-4.76657e-05
-0.00280288
-4.07205e-05
-0.00286402
-2.37364e-05
-0.00291311
7.40295e-06
-0.002935
5.52848e-05
-0.00290662
0.000131933
-0.00280093
0.000253831
-0.00258254
0.000437796
-0.00222281
0.000711206
-0.00172443
0.00108958
-0.00107089
0.00144086
-4.12103e-05
0.00133457
0.0012771
0.000625043
0.00159421
-0.000651553
-0.00268154
-0.00789461
-0.0111538
-0.00684113
-0.00590594
-0.00563939
-0.00549455
-0.00530562
-0.00506058
-0.00476579
-0.00443016
-0.00408297
-0.00376074
-0.00348938
-0.0032732
-0.00310907
-0.00299023
-0.0029061
-0.00284721
-0.00280754
-0.00278389
-0.00277693
-0.00278679
-0.00280986
-0.002842
-0.00287911
-0.0029163
-0.00294676
-0.00296047
-0.00294331
-0.00287858
-0.00273752
-0.00247493
-0.00202875
-0.00130957
-0.000212457
0.0012353
0.00257647
0.00320807
0.00256335
)
;

boundaryField
{
    floor
    {
        type            calculated;
        value           nonuniform List<scalar> 
29
(
0
0
0
0
0
0
0
0
0
0
0
0
0
0
0
0
0
0
0
0
-4.98547e-06
-1.26574e-05
-1.91173e-05
-2.49925e-05
-2.0636e-06
-3.6864e-06
-1.06118e-05
-1.13096e-05
-1.02254e-05
)
;
    }
    ceiling
    {
        type            calculated;
        value           nonuniform List<scalar> 
43
(
-5.92073e-05
-5.69839e-05
-5.52003e-05
-2.80961e-05
-1.91683e-05
-1.54087e-05
-1.30732e-05
-1.14307e-05
-1.02942e-05
-9.55229e-06
-9.15685e-06
-9.07567e-06
-9.23028e-06
-9.49937e-06
-9.79597e-06
-1.00822e-05
-1.03455e-05
-1.05754e-05
-1.07615e-05
-1.08917e-05
-1.09562e-05
-1.09541e-05
-1.0897e-05
-1.07915e-05
-1.06483e-05
-1.0471e-05
-1.02642e-05
-1.00248e-05
-9.75463e-06
-9.45194e-06
-9.12008e-06
-8.76316e-06
-8.38268e-06
-7.97614e-06
-7.53641e-06
-6.90094e-06
-6.59354e-06
-6.56415e-06
-6.82428e-06
-6.46868e-06
6.30636e-06
3.88057e-06
-8.43074e-05
)
;
    }
    sWall
    {
        type            calculated;
        value           uniform -0.000279248;
    }
    nWall
    {
        type            calculated;
        value           nonuniform List<scalar> 6(-5.42253e-05 -6.47104e-05 -6.93277e-05 -8.48176e-05 -9.33507e-05 -0.000111721);
    }
    sideWalls
    {
        type            empty;
        value           nonuniform 0();
    }
    glass1
    {
        type            calculated;
        value           nonuniform List<scalar> 9(-5.97956e-05 -0.000160651 -0.000245444 -0.000317643 -0.000378983 -0.000430757 -0.000478035 -0.000535338 -0.000599377);
    }
    glass2
    {
        type            calculated;
        value           nonuniform List<scalar> 2(-0.000293245 -0.000325772);
    }
    sun
    {
        type            calculated;
        value           uniform 0;
    }
    heatsource1
    {
        type            calculated;
        value           nonuniform List<scalar> 3(2.0503e-07 2.04926e-07 2.04945e-07);
    }
    heatsource2
    {
        type            calculated;
        value           nonuniform List<scalar> 4(5.14198e-08 5.15262e-08 0 0);
    }
    Table_master
    {
        type            calculated;
        value           nonuniform List<scalar> 9(-1.53774e-07 -1.53867e-07 -1.539e-07 -1.53922e-07 -1.53938e-07 -1.53948e-07 -1.53953e-07 -1.53946e-07 -1.53912e-07);
    }
    Table_slave
    {
        type            calculated;
        value           nonuniform List<scalar> 9(1.53631e-07 1.53652e-07 1.53629e-07 1.53612e-07 1.53607e-07 1.53611e-07 1.53631e-07 1.53681e-07 1.53772e-07);
    }
    inlet
    {
        type            calculated;
        value           uniform -0.00623653;
    }
    outlet
    {
        type            calculated;
        value           nonuniform List<scalar> 2(0.00823307 0.00331613);
    }
}


// ************************************************************************* //
