// -*- C++ -*-
// File generated by PyFoam - sorry for the ugliness

FoamFile
{
 version 2.0;
 format ascii;
 class volVectorField;
 location "1400";
 object U;
}

dimensions [ 0 1 -1 0 0 0 0 ];

internalField nonuniform List<vector> 459
(
  (0.0353091 0.0876293 0)
  (-0.170378 0.0258666 0)
  (-0.194437 0.0177426 0)
  (-0.22491 0.0121438 0)
  (-0.246849 0.00596767 0)
  (-0.259391 -0.000498592 0)
  (-0.261216 -0.00727969 0)
  (-0.251355 -0.0143653 0)
  (-0.230565 -0.0212108 0)
  (-0.200435 -0.026798 0)
  (-0.163979 -0.0303161 0)
  (-0.124596 -0.03149 0)
  (-0.0855607 -0.0308096 0)
  (-0.0520262 -0.0299503 0)
  (-0.0395092 -0.0307008 0)
  (0.000863733 0.0078955 0)
  (-0.0250745 -0.0201187 0)
  (0.00135486 -0.0291033 0)
  (0.0242422 -0.0211517 0)
  (0.0411349 -0.0140351 0)
  (0.0533464 -0.00887174 0)
  (0.0603944 -0.00529519 0)
  (0.0637815 -0.0034341 0)
  (0.0652298 -0.00261915 0)
  (0.0659298 -0.002219 0)
  (0.0663312 -0.00196048 0)
  (0.0664868 -0.00175223 0)
  (0.0663354 -0.00149605 0)
  (0.0656623 -0.00102102 0)
  (0.0638884 6.536e-05 0)
  (0.0597865 0.00230359 0)
  (0.0520508 0.0045507 0)
  (0.045782 0.0060939 0)
  (-0.0168243 0.0224506 0)
  (0.212611 0.179145 0)
  (-0.158337 0.0681122 0)
  (-0.155597 0.0521789 0)
  (-0.18679 0.0403589 0)
  (-0.20824 0.0270975 0)
  (-0.22078 0.0124859 0)
  (-0.223092 -0.0036455 0)
  (-0.214089 -0.02071 0)
  (-0.195056 -0.0365707 0)
  (-0.167911 -0.0488784 0)
  (-0.135806 -0.0559776 0)
  (-0.102047 -0.0574223 0)
  (-0.0697828 -0.0538124 0)
  (-0.0427509 -0.0467135 0)
  (-0.0257043 -0.0376004 0)
  (-0.0117651 -0.0184325 0)
  (-0.00668294 0.0150802 0)
  (0.078203 0.0334095 0)
  (0.034728 -0.0202713 0)
  (0.0408568 -0.0325349 0)
  (0.05247 -0.0274781 0)
  (0.0613746 -0.0186901 0)
  (0.0671228 -0.010728 0)
  (0.0693567 -0.00425772 0)
  (0.0696067 -0.000720111 0)
  (0.069461 0.000781913 0)
  (0.0695114 0.00146906 0)
  (0.0696573 0.00189056 0)
  (0.0697593 0.00224922 0)
  (0.0697646 0.00270714 0)
  (0.0696267 0.00363072 0)
  (0.06878 0.00596384 0)
  (0.0646485 0.0125131 0)
  (0.0542681 0.017744 0)
  (0.050587 0.0207081 0)
  (-0.0585432 0.0485885 0)
  (0.374412 0.267649 0)
  (-0.174401 0.108244 0)
  (-0.116425 0.0840723 0)
  (-0.146158 0.0629936 0)
  (-0.164793 0.0412485 0)
  (-0.175922 0.0176742 0)
  (-0.177391 -0.00836678 0)
  (-0.167569 -0.0354698 0)
  (-0.148817 -0.0598359 0)
  (-0.123695 -0.0777976 0)
  (-0.0955187 -0.0872065 0)
  (-0.0670598 -0.0879772 0)
  (-0.0405308 -0.0811347 0)
  (-0.0180793 -0.0681741 0)
  (-0.00156947 -0.0501429 0)
  (0.0109918 -0.0245245 0)
  (0.01859 0.0105806 0)
  (0.119618 -0.0433773 0)
  (0.0771305 -0.0464373 0)
  (0.0715524 -0.0418611 0)
  (0.073925 -0.0333112 0)
  (0.0756123 -0.0235132 0)
  (0.0765079 -0.0152169 0)
  (0.0748719 -0.0122217 0)
  (0.0708763 -0.00865493 0)
  (0.0681847 -0.00672793 0)
  (0.0670615 -0.00563011 0)
  (0.066656 -0.00493326 0)
  (0.0665276 -0.00444483 0)
  (0.0667143 -0.00396007 0)
  (0.0676986 -0.00312547 0)
  (0.0707355 0.000102026 0)
  (0.068342 0.0180796 0)
  (0.0534908 0.0302909 0)
  (0.057918 0.0376484 0)
  (-0.0954581 0.0753564 0)
  (0.519317 0.338647 0)
  (-0.208113 0.143897 0)
  (-0.0757446 0.110824 0)
  (-0.103017 0.0816911 0)
  (-0.115787 0.0536402 0)
  (-0.122703 0.0226951 0)
  (-0.120036 -0.0129601 0)
  (-0.107043 -0.0502521 0)
  (-0.0879538 -0.0820891 0)
  (-0.0657341 -0.104082 0)
  (-0.0433499 -0.114328 0)
  (-0.0223094 -0.11379 0)
  (-0.00338323 -0.104022 0)
  (0.012955 -0.0866548 0)
  (0.0265411 -0.0645356 0)
  (0.0411987 -0.0383355 0)
  (0.0640042 -0.0105331 0)
  (0.0957231 0.00734953 0)
  (0.102924 -0.0327707 0)
  (0.0874901 -0.0398132 0)
  (0.078825 -0.0355748 0)
  (0.0752115 -0.0292097 0)
  (0.0730477 -0.0215943 0)
  (0.072409 -0.0125798 0)
  (0.075056 -0.00759778 0)
  (0.0802806 -0.00614972 0)
  (0.0847379 -0.00528929 0)
  (0.0879617 -0.00453463 0)
  (0.0900173 -0.00350436 0)
  (0.0901978 -0.00196005 0)
  (0.0872927 0.00030328 0)
  (0.0800612 0.00355788 0)
  (0.0655371 0.00839082 0)
  (0.0531264 0.0297581 0)
  (0.040101 0.0469429 0)
  (0.0616944 0.0593641 0)
  (-0.140014 0.0982809 0)
  (0.643065 0.39363 0)
  (-0.248931 0.17315 0)
  (-0.0365206 0.125574 0)
  (-0.0579464 0.091647 0)
  (-0.0620886 0.0598667 0)
  (-0.0612312 0.0233914 0)
  (-0.0478486 -0.0211961 0)
  (-0.0299229 -0.0666324 0)
  (-0.0118138 -0.102103 0)
  (0.00478894 -0.124528 0)
  (0.018079 -0.132662 0)
  (0.0285735 -0.129368 0)
  (0.0366874 -0.117218 0)
  (0.0431976 -0.0985792 0)
  (0.0491964 -0.0760588 0)
  (0.0565868 -0.0524199 0)
  (0.0680162 -0.0332781 0)
  (0.0786736 -0.0293907 0)
  (0.0801245 -0.0367223 0)
  (0.0733575 -0.0357339 0)
  (0.0652754 -0.0306443 0)
  (0.0594454 -0.0250104 0)
  (0.0556569 -0.019168 0)
  (0.0541188 -0.0131038 0)
  (0.0551973 -0.00790678 0)
  (0.0584698 -0.005543 0)
  (0.0619673 -0.00458563 0)
  (0.0652825 -0.0035636 0)
  (0.0681924 -0.00149832 0)
  (0.0701973 0.00213262 0)
  (0.0699293 0.00729168 0)
  (0.0668652 0.0140425 0)
  (0.0603662 0.023065 0)
  (0.0525287 0.0395316 0)
  (0.0404877 0.0589878 0)
  (0.0691264 0.0799722 0)
  (-0.0372181 0.110909 0)
  (0.0472639 0.0250628 0)
  (-0.0696365 -0.0379384 0)
  (-0.286934 -0.0616209 0)
  (0.73152 0.439394 0)
  (-0.288013 0.192667 0)
  (-0.00735094 0.119869 0)
  (-0.0106412 0.0897754 0)
  (-0.00216806 0.0581281 0)
  (0.0116785 0.0141817 0)
  (0.0422705 -0.0395642 0)
  (0.0621401 -0.0842884 0)
  (0.075215 -0.115908 0)
  (0.0818534 -0.133721 0)
  (0.0830772 -0.138572 0)
  (0.0805275 -0.132672 0)
  (0.0756458 -0.118704 0)
  (0.0699137 -0.0994132 0)
  (0.0647799 -0.0775436 0)
  (0.0615345 -0.0558778 0)
  (0.0610201 -0.0383197 0)
  (0.060712 -0.0296999 0)
  (0.0567776 -0.0281965 0)
  (0.0491841 -0.0266983 0)
  (0.0410481 -0.0234555 0)
  (0.0347828 -0.0197176 0)
  (0.0307907 -0.0159953 0)
  (0.0292399 -0.0123746 0)
  (0.0300786 -0.00960588 0)
  (0.0327528 -0.00872547 0)
  (0.0362372 -0.0085834 0)
  (0.0401345 -0.0078715 0)
  (0.0442149 -0.00555386 0)
  (0.0481775 -0.000760096 0)
  (0.0513598 0.00654014 0)
  (0.0526549 0.015753 0)
  (0.0524928 0.0271034 0)
  (0.0525321 0.0424881 0)
  (0.0498495 0.061494 0)
  (0.0773715 0.0860337 0)
  (0.0485837 0.104281 0)
  (0.097774 0.0689968 0)
  (0.122576 0.0450539 0)
  (-0.139045 -0.0102474 0)
  (0.786812 0.481299 0)
  (-0.305648 0.177662 0)
  (0.0226866 0.0645255 0)
  (0.0554828 0.0569064 0)
  (0.0802253 0.0360063 0)
  (0.120247 -0.0133125 0)
  (0.149295 -0.0619354 0)
  (0.164595 -0.0981815 0)
  (0.1675 -0.12099 0)
  (0.160272 -0.131325 0)
  (0.145732 -0.130723 0)
  (0.126848 -0.121402 0)
  (0.106276 -0.105971 0)
  (0.086251 -0.0870382 0)
  (0.0684804 -0.0669067 0)
  (0.0539944 -0.0477521 0)
  (0.0431902 -0.0324371 0)
  (0.0347847 -0.0234862 0)
  (0.0266945 -0.0200104 0)
  (0.0183806 -0.0183859 0)
  (0.0109449 -0.0166029 0)
  (0.00542206 -0.0148051 0)
  (0.00201962 -0.0132356 0)
  (0.000761597 -0.0119563 0)
  (0.00147888 -0.0113646 0)
  (0.0036176 -0.0117706 0)
  (0.00652961 -0.0123905 0)
  (0.0100075 -0.0122717 0)
  (0.0141162 -0.0104779 0)
  (0.0189845 -0.00590767 0)
  (0.0258304 0.00238993 0)
  (0.0318669 0.0126394 0)
  (0.037463 0.0241925 0)
  (0.0447922 0.0379078 0)
  (0.0520657 0.0534485 0)
  (0.0773248 0.0734209 0)
  (0.0893974 0.0800488 0)
  (0.126205 0.0516203 0)
  (0.168754 0.0424314 0)
  (-0.031402 0.0967863 0)
  (0.894383 0.481647 0)
  (-0.0593124 0.15662 0)
  (0.117293 -0.0222634 0)
  (0.200305 -0.0552832 0)
  (0.241985 -0.0651772 0)
  (0.269329 -0.0817388 0)
  (0.281537 -0.0980824 0)
  (0.277172 -0.109377 0)
  (0.257923 -0.1142 0)
  (0.227802 -0.112529 0)
  (0.191354 -0.105017 0)
  (0.152702 -0.0928241 0)
  (0.115204 -0.0775789 0)
  (0.0813161 -0.0610499 0)
  (0.0525219 -0.044663 0)
  (0.0294254 -0.0297355 0)
  (0.0124608 -0.0186161 0)
  (0.000312874 -0.0126519 0)
  (-0.00867602 -0.0108596 0)
  (-0.0158333 -0.0106408 0)
  (-0.0215496 -0.0106215 0)
  (-0.0257276 -0.0107002 0)
  (-0.0284634 -0.0109695 0)
  (-0.029878 -0.0114928 0)
  (-0.0301938 -0.012397 0)
  (-0.0298173 -0.0136612 0)
  (-0.0291068 -0.0148882 0)
  (-0.0281185 -0.0155779 0)
  (-0.0266348 -0.0152088 0)
  (-0.0241867 -0.0131641 0)
  (-0.0195853 -0.00863798 0)
  (-0.00848852 -0.000911254 0)
  (6.32063e-05 0.00844762 0)
  (0.0114276 0.0173039 0)
  (0.0230815 0.0249953 0)
  (0.0444043 0.0336393 0)
  (0.0626407 0.0254418 0)
  (0.0809748 -0.00590105 0)
  (0.142487 0.0454911 0)
  (-0.459077 0.223445 0)
  (1.0462 0.426938 0)
  (0.495614 0.278858 0)
  (0.51412 0.174413 0)
  (0.549175 0.0997472 0)
  (0.531316 0.0485496 0)
  (0.485975 0.00643569 0)
  (0.433385 -0.0258399 0)
  (0.375426 -0.0467946 0)
  (0.312642 -0.0570422 0)
  (0.248249 -0.0586593 0)
  (0.186195 -0.0541983 0)
  (0.129583 -0.0458228 0)
  (0.080618 -0.0354894 0)
  (0.0402791 -0.024927 0)
  (0.00832667 -0.0152658 0)
  (-0.0154112 -0.00766039 0)
  (-0.0292741 -0.00410476 0)
  (-0.0381442 -0.00324014 0)
  (-0.0444012 -0.00396328 0)
  (-0.0494157 -0.00524235 0)
  (-0.0536015 -0.00656109 0)
  (-0.0570713 -0.0078528 0)
  (-0.0599916 -0.00915072 0)
  (-0.0625479 -0.0104754 0)
  (-0.0649898 -0.0118322 0)
  (-0.0676478 -0.0131151 0)
  (-0.0708387 -0.014026 0)
  (-0.0748258 -0.0141392 0)
  (-0.0799073 -0.0129209 0)
  (-0.0865471 -0.00969143 0)
  (-0.0954126 -0.00361067 0)
  (-0.106384 0.00587773 0)
  (-0.117245 0.0181905 0)
  (-0.134626 0.0335974 0)
  (-0.162271 0.0518615 0)
  (-0.202605 0.0708706 0)
  (-0.259532 0.0852387 0)
  (-0.323305 0.0919831 0)
  (-0.394808 0.0919006 0)
  (-0.66324 0.0855566 0)
  (-0.190866 -0.0170269 0)
  (0.103357 -0.0269652 0)
  (0.179528 -0.0491984 0)
  (0.168193 -0.0439459 0)
  (0.151323 -0.0325054 0)
  (0.129426 -0.0219212 0)
  (0.0993373 -0.0127599 0)
  (0.0649329 -0.00545591 0)
  (0.0306135 -0.00030419 0)
  (-0.00166465 0.00300335 0)
  (-0.0275895 0.00439617 0)
  (-0.046217 0.00439476 0)
  (-0.0589904 0.00341999 0)
  (-0.0666472 0.00146199 0)
  (-0.0708867 -0.00125226 0)
  (-0.0739061 -0.00410703 0)
  (-0.0765792 -0.0069462 0)
  (-0.0794479 -0.0093936 0)
  (-0.0824844 -0.0112304 0)
  (-0.0855515 -0.0126326 0)
  (-0.0887894 -0.013672 0)
  (-0.0923646 -0.014408 0)
  (-0.096451 -0.0148525 0)
  (-0.101202 -0.0149046 0)
  (-0.106686 -0.0143007 0)
  (-0.112823 -0.0126168 0)
  (-0.11933 -0.00930709 0)
  (-0.125666 -0.00377803 0)
  (-0.131065 0.00444223 0)
  (-0.134964 0.0155005 0)
  (-0.137991 0.0304189 0)
  (-0.140792 0.0495927 0)
  (-0.144574 0.0718609 0)
  (-0.150021 0.0924916 0)
  (-0.153562 0.0999831 0)
  (-0.135557 0.0724441 0)
  (-0.080741 -0.032088 0)
  (-0.289653 -0.227571 0)
  (0.0258397 0.201721 0)
  (0.0169832 0.0683324 0)
  (-0.030241 0.0147597 0)
  (-0.0508306 0.0130722 0)
  (-0.0667626 0.0182728 0)
  (-0.0787842 0.0220497 0)
  (-0.0872898 0.0253266 0)
  (-0.0942751 0.0283966 0)
  (-0.0996087 0.0305924 0)
  (-0.103404 0.031584 0)
  (-0.105601 0.0316673 0)
  (-0.106344 0.031806 0)
  (-0.105948 0.0325241 0)
  (-0.104822 0.0338107 0)
  (-0.103581 0.0356434 0)
  (-0.102664 0.0378374 0)
  (-0.10226 0.0397532 0)
  (-0.102424 0.0406564 0)
  (-0.103122 0.0400724 0)
  (-0.104317 0.0390382 0)
  (-0.105992 0.0376919 0)
  (-0.108116 0.0360753 0)
  (-0.110654 0.0342355 0)
  (-0.113552 0.0322455 0)
  (-0.116699 0.030206 0)
  (-0.119908 0.0282236 0)
  (-0.12289 0.0263744 0)
  (-0.125103 0.0246524 0)
  (-0.125547 0.0247158 0)
  (-0.122818 0.0280903 0)
  (-0.115286 0.035983 0)
  (-0.101812 0.0494765 0)
  (-0.082864 0.0682909 0)
  (-0.0597891 0.0872575 0)
  (-0.0357634 0.0979145 0)
  (0.00822812 0.0799658 0)
  (0.144323 0.003484 0)
  (-0.207309 -0.140552 0)
  (-0.0946567 -0.348741 0)
  (-0.448786 -0.138472 0)
  (-0.334412 0.0464741 0)
  (-0.287707 -0.0463343 0)
  (-0.245768 -0.0546219 0)
  (-0.233236 -0.0476071 0)
  (-0.22481 -0.040624 0)
  (-0.21557 -0.036208 0)
  (-0.204292 -0.034003 0)
  (-0.191062 -0.0341251 0)
  (-0.176685 -0.037182 0)
  (-0.162454 -0.0433208 0)
  (-0.149608 -0.0520142 0)
  (-0.13889 -0.0621544 0)
  (-0.130503 -0.0728787 0)
  (-0.124329 -0.0837018 0)
  (-0.120036 -0.0939757 0)
  (-0.117173 -0.102892 0)
  (-0.11538 -0.10982 0)
  (-0.114509 -0.114269 0)
  (-0.114546 -0.116019 0)
  (-0.115427 -0.116082 0)
  (-0.116903 -0.114721 0)
  (-0.118785 -0.112145 0)
  (-0.120907 -0.108491 0)
  (-0.123092 -0.103816 0)
  (-0.125091 -0.0980918 0)
  (-0.126546 -0.0911726 0)
  (-0.126989 -0.0827546 0)
  (-0.125823 -0.0723818 0)
  (-0.121959 -0.0610197 0)
  (-0.113182 -0.0485067 0)
  (-0.0964515 -0.034376 0)
  (-0.0696627 -0.0176512 0)
  (-0.0344863 0.00240169 0)
  (0.0260308 0.02814 0)
  (0.0766512 0.0284109 0)
  (0.125583 0.00600786 0)
  (0.17799 -0.0356852 0)
  (-0.174184 -0.104771 0)
)
;

boundaryField
{
  floor
  {
    type noSlip;
  }
  ceiling
  {
    type noSlip;
  }
  sWall
  {
    type noSlip;
  }
  nWall
  {
    type noSlip;
  }
  sideWalls
  {
    type empty;
  }
  glass1
  {
    type noSlip;
  }
  glass2
  {
    type noSlip;
  }
  sun
  {
    type noSlip;
  }
  heatsource1
  {
    type noSlip;
  }
  heatsource2
  {
    type noSlip;
  }
  Table_master
  {
    type noSlip;
  }
  Table_slave
  {
    type noSlip;
  }
  inlet
  {
    type fixedValue;
    value uniform (0.277164 -0.114805 0);
  }
  outlet
  {
    type zeroGradient;
  }
} 	// ************************************************************************* //

