/*--------------------------------*- C++ -*----------------------------------*\
  =========                 |
  \\      /  F ield         | OpenFOAM: The Open Source CFD Toolbox
   \\    /   O peration     | Website:  https://openfoam.org
    \\  /    A nd           | Version:  6
     \\/     M anipulation  |
\*---------------------------------------------------------------------------*/
FoamFile
{
    version     2.0;
    format      ascii;
    class       volScalarField;
    location    "1900";
    object      alphat;
}
// * * * * * * * * * * * * * * * * * * * * * * * * * * * * * * * * * * * * * //

dimensions      [1 -1 -1 0 0 0 0];

internalField   nonuniform List<scalar> 
459
(
0.00132504
0.00145279
0.00148124
0.00155452
0.00162324
0.00168846
0.00175358
0.0018131
0.00185289
0.00186615
0.00184706
0.00179203
0.0016999
0.00157593
0.00143542
0.000599581
0.000724385
0.000815125
0.00081355
0.000786733
0.000750459
0.000703897
0.000657536
0.000615468
0.000578152
0.000545133
0.000515819
0.000489765
0.000466389
0.000444864
0.000424148
0.000402782
0.000389407
0.000356773
0.00180187
0.00452625
0.00438097
0.00511564
0.00583984
0.00655228
0.00715417
0.00762815
0.00804536
0.0083726
0.0085678
0.0085877
0.00836657
0.00773521
0.00600193
0.00147526
0.000860112
0.000636693
0.00134008
0.00187093
0.00226044
0.00247064
0.00246251
0.00196187
0.00168827
0.00149415
0.00134575
0.00122806
0.00113235
0.00104978
0.000972584
0.000897308
0.000830217
0.00077049
0.000915113
0.000473026
0.00219444
0.00618543
0.00547123
0.00684761
0.00754678
0.00806738
0.00846994
0.00881138
0.00917167
0.00953407
0.00985168
0.0100706
0.0101286
0.00991943
0.0091413
0.00692026
0.00151412
0.00123163
0.00180244
0.00233754
0.00282759
0.00316376
0.00307809
0.000999454
0.000881808
0.000787169
0.000710821
0.000648673
0.000597555
0.000555189
0.000520129
0.000491812
0.000531692
0.000615599
0.00103719
0.000552215
0.00256759
0.00785984
0.00553086
0.00725427
0.00785821
0.00808363
0.00824893
0.00845869
0.0087705
0.00916354
0.00957533
0.00993932
0.0101832
0.0102174
0.00997674
0.00910892
0.00619792
0.00178566
0.00222454
0.00289311
0.00355654
0.00408838
0.0044093
0.00411926
0.00112374
0.00102304
0.000950957
0.000895528
0.000847752
0.000804183
0.000762194
0.000718183
0.000667312
0.000625654
0.00064481
0.00121448
0.000610941
0.00294564
0.00998357
0.00611657
0.00704736
0.00780411
0.00788089
0.00785452
0.00801007
0.00829615
0.00871492
0.00918345
0.00961219
0.00989526
0.00997031
0.00983171
0.00944163
0.00857332
0.00712466
0.00662762
0.00647609
0.00643116
0.00639352
0.00630644
0.00603097
0.00505076
0.00458083
0.00430442
0.00408808
0.0038615
0.00353662
0.00311298
0.00261231
0.00206696
0.00152826
0.00112946
0.00118931
0.000799638
0.000744514
0.000889421
0.000995801
0.00334458
0.0122852
0.00836116
0.00718365
0.00773532
0.00786174
0.00780542
0.00790458
0.00813025
0.00851813
0.0090187
0.00949773
0.00980481
0.0098489
0.00964446
0.0092956
0.00891587
0.00856512
0.0083715
0.00820269
0.0079855
0.00772537
0.00743128
0.00707972
0.006604
0.00619442
0.00584314
0.00551629
0.00519142
0.0048375
0.00439139
0.00383633
0.00317657
0.00245832
0.0018348
0.00136545
0.00106944
0.000943249
0.00136537
0.0010443
0.00369822
0.0138421
0.0114952
0.00922634
0.00884162
0.00851422
0.00817582
0.00804382
0.00819217
0.00860814
0.00917857
0.00971289
0.0100203
0.00999684
0.00968371
0.009273
0.00901077
0.00897671
0.00898687
0.00883951
0.00851511
0.00808083
0.00758842
0.00706994
0.00655814
0.00611303
0.00572708
0.00538128
0.0050699
0.00479698
0.00455831
0.00417662
0.00364404
0.00300915
0.00241689
0.0018854
0.00153745
0.00146866
0.00154046
0.00120227
0.00375643
0.0120555
0.0108985
0.0100745
0.00928411
0.00850046
0.00802422
0.0079774
0.00834207
0.00899614
0.00973174
0.0103021
0.010515
0.0103124
0.00981365
0.0093201
0.00912469
0.00916837
0.00905199
0.0086527
0.0080608
0.00737677
0.00668647
0.00606351
0.00555133
0.00514843
0.00482496
0.0045626
0.00435955
0.0042226
0.00415803
0.00411475
0.00379867
0.00337772
0.00302256
0.00287457
0.00307743
0.00374457
0.00471229
0.00185611
0.00364608
0.00430257
0.00474215
0.00485496
0.00511382
0.00568149
0.00657336
0.00772482
0.00898236
0.010136
0.0109643
0.0112853
0.0110578
0.0104194
0.00969115
0.00924943
0.00897763
0.00867127
0.00815413
0.00742911
0.00660736
0.00581233
0.00513699
0.00461577
0.00422949
0.00393659
0.00370192
0.00350519
0.00333425
0.00317942
0.00303257
0.00289838
0.00279225
0.00272371
0.00271537
0.00275203
0.0027499
0.00263453
0.00244819
0.0017076
0.00172952
0.00438725
0.00792562
0.010213
0.0117142
0.0126269
0.0130003
0.0129156
0.0124627
0.0117375
0.0107192
0.00968516
0.0088926
0.00833946
0.0077854
0.00710539
0.00632147
0.005516
0.00477373
0.00417261
0.0037311
0.00341775
0.00319168
0.00302186
0.00289005
0.00278736
0.0027106
0.00266073
0.00264302
0.00265434
0.00268161
0.00272145
0.00276095
0.00276367
0.00267463
0.00247483
0.0021784
0.00137619
0.00261739
0.00806622
0.0110432
0.0118063
0.0120287
0.0118409
0.0112753
0.0104707
0.00956053
0.00866918
0.00782881
0.00712155
0.00653339
0.00594747
0.00531501
0.00468179
0.00410201
0.00361129
0.00322263
0.00292478
0.00271204
0.00256483
0.00246765
0.00241124
0.00238977
0.00239794
0.00242889
0.00247703
0.00255081
0.00264459
0.00275395
0.00287019
0.0029741
0.00304827
0.00303613
0.00303998
0.00275007
0.00139323
0.00231547
0.00245666
0.00255809
0.0027381
0.00262246
0.0025191
0.00243459
0.00231338
0.00215058
0.00195568
0.00173894
0.00151921
0.00132283
0.0011655
0.00104739
0.000960686
0.000897062
0.000850742
0.000818544
0.000798726
0.000789909
0.000790457
0.00079763
0.000810475
0.00082844
0.000851304
0.000879112
0.00091222
0.000951448
0.000997861
0.00105081
0.00111085
0.00117848
0.0012543
0.00133831
0.00144973
0.00148173
0.00144529
0.00134825
0.0012438
)
;

boundaryField
{
    floor
    {
        type            compressible::alphatWallFunction;
        Prt             0.85;
        value           nonuniform List<scalar> 
29
(
0.00020224
8.4279e-05
0.000102741
0.00011592
0.000115693
0.000111817
0.000106548
9.97388e-05
9.2905e-05
8.66533e-05
8.10636e-05
7.60806e-05
7.16252e-05
6.76389e-05
6.40394e-05
6.07048e-05
5.74762e-05
5.4125e-05
5.20159e-05
4.68299e-05
4.68292e-05
6.50644e-05
7.71535e-05
8.59789e-05
0.000202237
8.42779e-05
8.98134e-05
0.000174471
0.000248977
)
;
    }
    ceiling
    {
        type            compressible::alphatWallFunction;
        Prt             0.85;
        value           nonuniform List<scalar> 
43
(
0.000317698
0.000335742
0.000348639
0.000371551
0.00035701
0.000343927
0.000333182
0.000317689
0.000296737
0.000271423
0.000242943
0.000213665
0.000187098
0.000165489
0.000149049
0.000136843
0.000127805
0.000121177
0.000116545
0.000113683
0.000112407
0.000112487
0.000113525
0.000115381
0.000117971
0.000121258
0.000125242
0.000129965
0.000135536
0.000142093
0.000149529
0.00015791
0.000167288
0.000177728
0.000189213
0.000204321
0.000208636
0.000203723
0.000190568
0.000176292
0.000484433
0.00056402
0.00035591
)
;
    }
    sWall
    {
        type            compressible::alphatWallFunction;
        Prt             0.85;
        value           uniform 0.000316426;
    }
    nWall
    {
        type            compressible::alphatWallFunction;
        Prt             0.85;
        value           nonuniform List<scalar> 6(0.000141454 0.000148263 0.000170205 0.000194019 0.000196329 0.000175945);
    }
    sideWalls
    {
        type            empty;
    }
    glass1
    {
        type            compressible::alphatWallFunction;
        Prt             0.85;
        value           nonuniform List<scalar> 9(0.000182522 0.000245497 0.000296106 0.000343408 0.000390664 0.000439897 0.000483085 0.0004903 0.000477148);
    }
    glass2
    {
        type            compressible::alphatWallFunction;
        Prt             0.85;
        value           nonuniform List<scalar> 2(0.000256294 0.000236877);
    }
    sun
    {
        type            compressible::alphatWallFunction;
        Prt             0.85;
        value           nonuniform List<scalar> 
14
(
0.000187279
0.00020459
0.000208423
0.000218265
0.000227446
0.000236119
0.000244744
0.000252594
0.000257827
0.000259569
0.000257061
0.000249816
0.000237634
0.000221126
)
;
    }
    heatsource1
    {
        type            compressible::alphatWallFunction;
        Prt             0.85;
        value           nonuniform List<scalar> 3(0.000105834 0.00012674 0.000141828);
    }
    heatsource2
    {
        type            compressible::alphatWallFunction;
        Prt             0.85;
        value           nonuniform List<scalar> 4(0.00020779 0.000122547 0.000122545 0.000213016);
    }
    Table_master
    {
        type            compressible::alphatWallFunction;
        Prt             0.85;
        value           nonuniform List<scalar> 9(0.00014234 0.000125649 0.000112032 0.000100904 9.17382e-05 8.41188e-05 7.7743e-05 7.2421e-05 6.80896e-05);
    }
    Table_slave
    {
        type            compressible::alphatWallFunction;
        Prt             0.85;
        value           nonuniform List<scalar> 9(0.000159728 0.00014566 0.000135492 0.000127612 0.000120773 0.000114496 0.000108409 0.000101985 9.45e-05);
    }
    inlet
    {
        type            fixedValue;
        value           uniform 1.94e-05;
    }
    outlet
    {
        type            zeroGradient;
    }
}


// ************************************************************************* //
