/*--------------------------------*- C++ -*----------------------------------*=========                 |
  \      /  F ield         | OpenFOAM: The Open Source CFD Toolbox
   \    /   O peration     | Website:  https://openfoam.org
    \  /    A nd           | Version:  6
     \/     M anipulation  |
\*---------------------------------------------------------------------------*/
FoamFile
{
    version     2.0;
    format      ascii;
    class       volScalarField;
    location    "1900";
    object      PMV;
}
// * * * * * * * * * * * * * * * * * * * * * * * * * * * * * * * * * * * * * //

dimensions      [0 0 0 0 0 0 0];

internalField   nonuniform List<scalar> 
459
(
1.6571072517090042
1.441358388276758
1.4151864314437226
1.3917476299974496
1.3763043299768967
1.3669102710089713
1.3642264868218092
1.3681140126242919
1.3778619301397597
1.3950992021236364
1.4202568595778606
1.455902295134641
1.5035553225396456
1.5399340173360967
1.5442334648649352
1.608707190321479
1.5958147555418598
1.5910394392474083
1.5929495875997055
1.5953372321144392
1.5982023451981033
1.5963104697295352
1.5918071029782146
1.5916088934400694
1.5924416479363166
1.5938465621371825
1.5956934569150498
1.5980942235545854
1.601409978253256
1.6066417506560964
1.616007269780922
1.6249401530656804
1.6287593495095158
1.640693524297193
1.6195280311372011
1.46238466876659
1.4537263135395624
1.4329265128606028
1.4202209673207047
1.4133490923985796
1.4110452606584492
1.4130630515455171
1.4176374011281856
1.4259927980548963
1.440697955056653
1.4647772248045077
1.4990356645734342
1.5313347304481832
1.5322902323369976
1.5322902323369976
1.5318124821867207
1.5732470261867328
1.5862639418714064
1.5824434148439237
1.5837865632060228
1.5778861946496965
1.5738761370523104
1.5723552303409185
1.5728816635571399
1.5739960974143568
1.5747801635157104
1.5753999328311203
1.5761048212705355
1.5769646102437336
1.57803660654187
1.5805514444273603
1.5882085460081665
1.6067972855943307
1.6120494511094126
1.6045600908258417
1.66154453210813
1.4653633758999514
1.489613127741301
1.4801774160935985
1.477175750297979
1.4768462942879856
1.478341551684514
1.4786837362949425
1.4744087942919155
1.467428977967138
1.4641379338310803
1.4696825314664073
1.4878598130945397
1.518822586744504
1.5294237076468205
1.5313347304481832
1.5327679808973667
1.4818619733081497
1.522133119285548
1.5342724965513515
1.543710551713607
1.5532722349998451
1.5601195463688995
1.5635084333780742
1.5715719699711919
1.5772161865716159
1.579800363225197
1.5809183901290853
1.5819337028318923
1.5819108737488656
1.5809770069821645
1.5766396716954565
1.5784701357634876
1.5958798133039018
1.588657853419536
1.5430358092705454
1.7375403115123507
1.470969503302439
1.5179068991354303
1.5275857711324836
1.5455475028016572
1.5610487192030758
1.5734566420256002
1.5683928072279232
1.5420485839219635
1.505691452601185
1.4753747588849393
1.4594122152801279
1.462169235499251
1.483304406920823
1.5146025392606928
1.5322902323369976
1.5169373669088397
1.476094269436872
1.4754366993253685
1.5025849656659112
1.5285140736874967
1.5502011433450065
1.5683862517702685
1.5824738811858796
1.5873174626502338
1.585804318433103
1.5847943051233158
1.5859280535844755
1.5873307998167379
1.590722024635445
1.5969901819375407
1.6090930053609054
1.6313376080798483
1.6252416970960877
1.6104208967577796
1.5685139526052203
1.4996435299531896
1.827419757182473
1.4917095849873896
1.544935188291787
1.5739447772374144
1.6217313783342873
1.6762290577650727
1.6998678198442039
1.6535415257710802
1.5821075092289851
1.5129615857210255
1.4633792404139279
1.4365874839234154
1.4331256037244677
1.4499613838931933
1.4788230053159714
1.5054726786786008
1.5117645392814083
1.5088955011436114
1.517461403262668
1.5415252693339332
1.571081254759418
1.597938024570648
1.6208347008859652
1.6374223161081938
1.647125664589861
1.6492666991517735
1.6498406475244032
1.649540284919764
1.6481283319974644
1.6465952806175974
1.645967109019475
1.6469327569317391
1.6487493155614188
1.6353841191585614
1.6092535512916157
1.5506798059962301
1.544669710211634
1.6741024224257455
1.660901683790193
1.4987859180687668
1.916925027877019
1.5346574707428264
1.5974219241653727
1.627375662530089
1.6960511336241206
1.7246726866945603
1.7122690439996229
1.6331033749282748
1.5554221696482757
1.4840249974573148
1.4312936933330098
1.4042744273847347
1.4049452493857322
1.427742275325186
1.4651696142245263
1.5057307043739225
1.536391551022645
1.557955415246003
1.5817501019369478
1.6120748650564836
1.6311462835740185
1.6454668438533424
1.6573992492604652
1.666944237766418
1.6745796175696226
1.680305790390789
1.6850773610916068
1.6879401978397655
1.6888944590411752
1.6874630639122008
1.6841230645179894
1.6793514499858477
1.6712666396012612
1.6460027223550084
1.6116887221580702
1.5504678763438196
1.5480395900652675
1.56399347904781
1.5632615774496672
1.5754836706227586
2.006190961690481
1.6297440275516593
1.748899823383183
1.7229784668251094
1.7195166767209995
1.6932254025691469
1.639693961308509
1.5667146205576439
1.4877242464218858
1.419348639752698
1.3753584889050818
1.3630741202587286
1.3815689171922694
1.4234360534214183
1.480170100227763
1.5420939967397127
1.5838761258603566
1.607752241711857
1.6287593495095158
1.6478534275530077
1.6636035875949922
1.676488376546828
1.6865087894140938
1.694142736351946
1.6998678198442039
1.7041614180336788
1.7065466702795034
1.7079777940209684
1.7070237138315547
1.7046384730735662
1.6989136618731526
1.6922343031567761
1.6836459129300263
1.6718631639412194
1.6320517449253138
1.574613747066703
1.552332852328649
1.5421662397710891
1.516587061761704
1.6009265537648592
2.1384785122950714
1.9488515284613304
1.9041712856971729
1.8048286213722762
1.7456036948493983
1.6637005270211467
1.5591782875321374
1.452531680323317
1.3646174530888147
1.3110466689824867
1.2974084068529543
1.3234168704739584
1.3796288186708259
1.4559174732005205
1.5458318782762064
1.5886517130779314
1.6211208320360213
1.6473761148894008
1.6678986901567512
1.6836459129300263
1.6960511336241206
1.7055925762716457
1.7122710403426673
1.7175180850996843
1.7208569655249246
1.7227648451323208
1.7237187706781254
1.7227648451323208
1.7208569655249246
1.7175180850996843
1.7127480560986788
1.7051155258203035
1.6970053187457366
1.6874630639122008
1.676488376546828
1.6659897768790701
1.6454927030000686
1.6340575824119195
1.5739008767071365
1.4901526777669605
2.3356786839878976
2.2040879655575774
2.0380466482209156
1.8572391358908433
1.6489375333219733
1.4334316385333066
1.263697760897937
1.1596206413745547
1.126192905803143
1.154070621826678
1.228999911484823
1.3357127841691743
1.4579763460565658
1.5418448991569473
1.5967697969062127
1.6411708653399892
1.6693303527737842
1.6888944590411752
1.7032073010831816
1.7141790893733153
1.7227648451323208
1.724161138069415
1.723319827322348
1.7214450948563131
1.7190495668396106
1.7156222531059349
1.710750870422179
1.7041834724044609
1.6965926909030606
1.6869877445862347
1.6754643499849267
1.663345476149678
1.652122865825582
1.6378653113507442
1.621760266795482
1.6080241339629258
1.5989988797386396
1.5938438288643773
1.5833079667206376
1.5529441832444704
-2.974829073179604
-1.8351227442316407
-1.1373607086540416
-0.3898521066630568
0.17048800228038907
0.6048647515480156
0.956105146656038
1.2181397796808915
1.3807725325768816
1.5060116604822307
1.5800555276271822
1.6311462835740185
1.6524621986674037
1.6684728966905225
1.6811361352421066
1.689591646293371
1.6954230062334033
1.6980779825697905
1.698914608763889
1.697788305971363
1.69572615673781
1.6930721534566486
1.689172005102758
1.684363229173067
1.6791121023630715
1.6735438157674465
1.6679182463133588
1.6630706567562286
1.6594032866536228
1.6568042761568507
1.6546637977874756
1.6536712941452831
1.653374562050102
1.6554776339573931
1.6660303715805687
1.700861176963173
1.771956695226998
1.6167112434357953
-2.466572336075754
-0.9989783837782307
0.04470336742375894
0.5768119501632395
0.9011422178638101
1.104305026861595
1.257848514390214
1.3768453919907504
1.4682096442933472
1.5370666712858103
1.5831638085610709
1.6154710013449982
1.6384891317974313
1.654529600633669
1.6658509086166398
1.6732025691015509
1.6780532393660237
1.6805683521097898
1.6820331903618797
1.682912119714945
1.6830113632344614
1.6822829869605327
1.6812130568217585
1.6793338709899364
1.677705249977087
1.6759930010922637
1.6744605729185817
1.6735700486232545
1.6739103401528472
1.6773770322101287
1.6848349214077512
1.6957490048682582
1.7077754167790833
1.7184719421494914
1.7298865693877628
1.7681930029435022
1.7035362033127626
1.6545084398134415
-0.8560142749773039
-0.9949945144310527
-0.8751492522623374
0.3746526603239692
0.8885423949925543
1.1041799585549634
1.2372407262367777
1.3398509233214713
1.4227742720378962
1.4896053161694403
1.5439089653342648
1.5857250076641833
1.6156002905964613
1.6360898219108135
1.649151355309702
1.657031392988206
1.660836065736794
1.6618014253080837
1.6620799077285462
1.6616743988880402
1.6613751071689788
1.6612128514948652
1.6613810582657473
1.6613396837762764
1.6620729479797935
1.662600317659996
1.6640427298218663
1.6656341713528668
1.6682629523234014
1.6729249878655872
1.6798207627595325
1.6917010181223795
1.7124137859951925
1.750352860969845
1.7785528772112944
1.7847493756700743
1.75167403443787
1.7099587514839933
1.6684848288477647
1.6735577485266304
)
;

boundaryField
{
    ".*"
    {
        type            zeroGradient;
    }
}


// ************************************************************************* //
