// -*- C++ -*-
// File generated by PyFoam - sorry for the ugliness

FoamFile
{
 version 2.0;
 format ascii;
 class volScalarField;
 location "1900";
 object T;
}

dimensions [ 0 0 0 1 0 0 0 ];

internalField nonuniform List<scalar> 459
(
  302.679
  302.399
  302.384
  302.379
  302.375
  302.37
  302.365
  302.359
  302.35
  302.34
  302.329
  302.321
  302.318
  302.319
  302.328
  302.463
  302.436
  302.426
  302.43
  302.435
  302.441
  302.446
  302.451
  302.457
  302.462
  302.467
  302.472
  302.477
  302.482
  302.487
  302.492
  302.497
  302.505
  302.53
  302.864
  302.44
  302.411
  302.412
  302.413
  302.413
  302.409
  302.4
  302.383
  302.36
  302.336
  302.317
  302.305
  302.301
  302.303
  302.303
  302.302
  302.466
  302.416
  302.408
  302.412
  302.419
  302.426
  302.429
  302.431
  302.433
  302.435
  302.437
  302.439
  302.441
  302.443
  302.446
  302.451
  302.459
  302.47
  302.511
  303.058
  302.493
  302.446
  302.454
  302.465
  302.474
  302.476
  302.465
  302.437
  302.396
  302.354
  302.32
  302.3
  302.294
  302.297
  302.301
  302.304
  302.392
  302.389
  302.397
  302.412
  302.426
  302.437
  302.437
  302.437
  302.437
  302.437
  302.437
  302.438
  302.438
  302.439
  302.44
  302.444
  302.449
  302.46
  302.503
  303.255
  302.56
  302.485
  302.497
  302.524
  302.548
  302.563
  302.55
  302.504
  302.437
  302.372
  302.322
  302.293
  302.287
  302.293
  302.303
  302.313
  302.329
  302.35
  302.377
  302.405
  302.432
  302.454
  302.472
  302.486
  302.498
  302.508
  302.518
  302.525
  302.531
  302.535
  302.539
  302.54
  302.508
  302.481
  302.47
  302.505
  303.447
  302.647
  302.533
  302.541
  302.579
  302.623
  302.654
  302.634
  302.564
  302.466
  302.379
  302.317
  302.284
  302.278
  302.29
  302.31
  302.331
  302.356
  302.385
  302.417
  302.45
  302.48
  302.506
  302.526
  302.544
  302.558
  302.57
  302.579
  302.584
  302.586
  302.584
  302.579
  302.57
  302.546
  302.512
  302.486
  302.502
  302.6
  302.645
  302.651
  303.62
  302.761
  302.618
  302.606
  302.646
  302.706
  302.73
  302.682
  302.584
  302.468
  302.366
  302.296
  302.265
  302.266
  302.29
  302.325
  302.361
  302.398
  302.436
  302.474
  302.51
  302.54
  302.565
  302.585
  302.601
  302.613
  302.623
  302.629
  302.631
  302.628
  302.621
  302.611
  302.597
  302.574
  302.54
  302.508
  302.505
  302.546
  302.566
  302.607
  303.782
  302.941
  302.804
  302.779
  302.796
  302.83
  302.79
  302.685
  302.547
  302.411
  302.305
  302.245
  302.232
  302.255
  302.301
  302.357
  302.411
  302.461
  302.505
  302.545
  302.578
  302.605
  302.626
  302.642
  302.654
  302.663
  302.668
  302.671
  302.669
  302.664
  302.652
  302.638
  302.62
  302.597
  302.568
  302.536
  302.522
  302.534
  302.547
  302.581
  304.015
  303.391
  303.242
  303.162
  303.092
  302.961
  302.776
  302.573
  302.389
  302.253
  302.177
  302.163
  302.196
  302.259
  302.34
  302.421
  302.489
  302.544
  302.587
  302.62
  302.646
  302.666
  302.68
  302.691
  302.698
  302.702
  302.704
  302.702
  302.698
  302.691
  302.681
  302.665
  302.648
  302.628
  302.605
  302.583
  302.576
  302.596
  302.623
  302.775
  304.351
  304.055
  303.758
  303.445
  303.068
  302.661
  302.322
  302.087
  301.965
  301.941
  301.992
  302.091
  302.206
  302.323
  302.438
  302.531
  302.59
  302.631
  302.661
  302.684
  302.702
  302.714
  302.723
  302.728
  302.731
  302.732
  302.731
  302.728
  302.725
  302.721
  302.718
  302.718
  302.721
  302.73
  302.748
  302.778
  302.82
  302.861
  302.887
  302.95
  293.355
  295.248
  297.229
  298.705
  299.774
  300.578
  301.188
  301.646
  301.986
  302.248
  302.403
  302.51
  302.588
  302.641
  302.678
  302.703
  302.722
  302.735
  302.745
  302.751
  302.755
  302.758
  302.759
  302.759
  302.759
  302.759
  302.759
  302.76
  302.762
  302.765
  302.77
  302.781
  302.799
  302.824
  302.854
  302.882
  302.903
  302.926
  294.549
  297.001
  299.193
  300.306
  301.011
  301.506
  301.862
  302.131
  302.333
  302.482
  302.579
  302.645
  302.69
  302.72
  302.741
  302.755
  302.765
  302.771
  302.775
  302.778
  302.78
  302.781
  302.782
  302.782
  302.783
  302.784
  302.785
  302.786
  302.787
  302.79
  302.795
  302.802
  302.814
  302.832
  302.852
  302.875
  302.874
  302.906
  298.286
  298.21
  298.204
  300.524
  301.449
  301.846
  302.09
  302.275
  302.42
  302.532
  302.619
  302.683
  302.727
  302.757
  302.777
  302.791
  302.8
  302.805
  302.809
  302.811
  302.812
  302.812
  302.812
  302.811
  302.811
  302.81
  302.81
  302.809
  302.808
  302.808
  302.808
  302.809
  302.81
  302.813
  302.819
  302.832
  302.843
  302.851
  302.855
  302.895
)
;

boundaryField
{
  floor
  {
    type wallHeatTransfer;
    Tinf uniform 305.2;
    alphaWall uniform 0.24;
    value nonuniform List<scalar> 29
(
  302.602
  302.953
  302.871
  302.828
  302.832
  302.846
  302.864
  302.888
  302.914
  302.939
  302.964
  302.988
  303.011
  303.034
  303.055
  303.076
  303.098
  303.122
  303.141
  303.194
  303.194
  303.073
  303.013
  302.982
  302.602
  302.953
  302.936
  302.692
  302.56
)
;
  }
  ceiling
  {
    type wallHeatTransfer;
    Tinf uniform 303.2;
    alphaWall uniform 0.24;
    value nonuniform List<scalar> 43
(
  298.607
  298.521
  298.505
  300.676
  301.552
  301.929
  302.16
  302.335
  302.474
  302.582
  302.667
  302.73
  302.775
  302.806
  302.828
  302.843
  302.854
  302.861
  302.865
  302.868
  302.869
  302.869
  302.869
  302.868
  302.867
  302.865
  302.863
  302.861
  302.859
  302.857
  302.855
  302.854
  302.853
  302.854
  302.857
  302.867
  302.876
  302.884
  302.889
  302.927
  304.299
  304.021
  295.06
)
;
  }
  sWall
  {
    type wallHeatTransfer;
    Tinf uniform 315.2;
    alphaWall uniform 0.36;
    value uniform 299.896;
  }
  nWall
  {
    type wallHeatTransfer;
    Tinf uniform 307.2;
    alphaWall uniform 0.36;
    value nonuniform List<scalar> 6
(
  303.457
  303.394
  303.298
  303.527
  303.505
  303.547
)
;
  }
  sideWalls
  {
    type empty;
  }
  glass1
  {
    type wallHeatTransfer;
    Tinf uniform 315.2;
    alphaWall uniform 4.3;
    value nonuniform List<scalar> 9
(
  311.115
  310.429
  310.003
  309.682
  309.418
  309.18
  309.012
  309.099
  309.352
)
;
  }
  glass2
  {
    type wallHeatTransfer;
    Tinf uniform 307.2;
    alphaWall uniform 4.3;
    value nonuniform List<scalar> 2
(
  305.448
  305.589
)
;
  }
  sun
  {
    type wallHeatTransfer;
    Tinf uniform 305.2;
    alphaWall uniform 0.24;
    value nonuniform List<scalar> 14
(
  302.934
  302.663
  302.645
  302.632
  302.62
  302.608
  302.596
  302.585
  302.573
  302.562
  302.554
  302.552
  302.558
  302.574
)
;
  }
  heatsource1
  {
    type fixedGradient;
    gradient uniform 0;
  }
  heatsource2
  {
    type fixedGradient;
    gradient uniform 0;
  }
  Table_master
  {
    type zeroGradient;
  }
  Table_slave
  {
    type zeroGradient;
  }
  inlet
  {
    type fixedValue;
    value uniform 290.15;
  }
  outlet
  {
    type zeroGradient;
  }
} 	// ************************************************************************* //

