// -*- C++ -*-
// File generated by PyFoam - sorry for the ugliness

FoamFile
{
 version 2.0;
 format ascii;
 class volScalarField;
 location "900";
 object T;
}

dimensions [ 0 0 0 1 0 0 0 ];

internalField nonuniform List<scalar> 459
(
  302.933
  302.652
  302.638
  302.635
  302.631
  302.628
  302.624
  302.619
  302.613
  302.604
  302.593
  302.582
  302.571
  302.564
  302.563
  302.646
  302.621
  302.611
  302.612
  302.614
  302.616
  302.619
  302.621
  302.624
  302.627
  302.629
  302.631
  302.632
  302.633
  302.633
  302.633
  302.632
  302.63
  302.645
  303.125
  302.692
  302.666
  302.669
  302.672
  302.674
  302.674
  302.67
  302.662
  302.645
  302.622
  302.597
  302.574
  302.557
  302.547
  302.541
  302.538
  302.641
  302.608
  302.599
  302.598
  302.598
  302.599
  302.599
  302.598
  302.597
  302.597
  302.596
  302.595
  302.594
  302.593
  302.593
  302.593
  302.594
  302.596
  302.625
  303.325
  302.744
  302.698
  302.708
  302.721
  302.733
  302.741
  302.742
  302.733
  302.707
  302.667
  302.623
  302.585
  302.559
  302.545
  302.542
  302.542
  302.581
  302.584
  302.589
  302.596
  302.601
  302.604
  302.602
  302.6
  302.598
  302.596
  302.594
  302.592
  302.59
  302.588
  302.585
  302.585
  302.584
  302.585
  302.616
  303.524
  302.808
  302.732
  302.744
  302.769
  302.795
  302.817
  302.829
  302.819
  302.78
  302.718
  302.65
  302.594
  302.558
  302.542
  302.541
  302.546
  302.558
  302.568
  302.583
  302.598
  302.61
  302.619
  302.624
  302.629
  302.633
  302.636
  302.639
  302.641
  302.641
  302.641
  302.64
  302.637
  302.617
  302.599
  302.588
  302.615
  303.715
  302.892
  302.772
  302.775
  302.807
  302.846
  302.886
  302.913
  302.902
  302.845
  302.759
  302.666
  302.595
  302.553
  302.536
  302.538
  302.549
  302.565
  302.583
  302.603
  302.621
  302.636
  302.646
  302.654
  302.66
  302.665
  302.669
  302.671
  302.671
  302.669
  302.665
  302.659
  302.651
  302.636
  302.614
  302.595
  302.608
  302.676
  302.71
  302.72
  303.884
  303.002
  302.849
  302.824
  302.847
  302.889
  302.942
  302.981
  302.955
  302.875
  302.768
  302.663
  302.583
  302.538
  302.524
  302.534
  302.555
  302.58
  302.607
  302.631
  302.652
  302.667
  302.678
  302.686
  302.691
  302.694
  302.697
  302.697
  302.695
  302.691
  302.683
  302.674
  302.663
  302.648
  302.627
  302.606
  302.605
  302.633
  302.645
  302.682
  304.036
  303.177
  303.028
  302.977
  302.971
  302.991
  303.034
  303.035
  302.972
  302.861
  302.732
  302.619
  302.542
  302.507
  302.508
  302.533
  302.569
  302.607
  302.641
  302.668
  302.687
  302.701
  302.71
  302.715
  302.719
  302.721
  302.722
  302.72
  302.717
  302.71
  302.7
  302.687
  302.674
  302.658
  302.64
  302.62
  302.611
  302.619
  302.628
  302.659
  304.263
  303.625
  303.463
  303.347
  303.267
  303.223
  303.174
  303.072
  302.924
  302.76
  302.614
  302.512
  302.463
  302.462
  302.494
  302.545
  302.6
  302.648
  302.685
  302.707
  302.722
  302.731
  302.737
  302.741
  302.743
  302.744
  302.743
  302.741
  302.737
  302.73
  302.721
  302.706
  302.693
  302.68
  302.666
  302.652
  302.65
  302.667
  302.691
  302.845
  304.587
  304.291
  303.984
  303.709
  303.485
  303.296
  303.108
  302.859
  302.621
  302.447
  302.351
  302.329
  302.362
  302.431
  302.511
  302.591
  302.659
  302.7
  302.725
  302.741
  302.75
  302.757
  302.761
  302.763
  302.765
  302.766
  302.765
  302.764
  302.762
  302.76
  302.76
  302.763
  302.768
  302.781
  302.803
  302.835
  302.876
  302.916
  302.942
  303.004
  294.058
  297.233
  299.159
  300.003
  300.476
  300.912
  301.31
  301.654
  301.938
  302.166
  302.349
  302.505
  302.61
  302.676
  302.718
  302.743
  302.758
  302.768
  302.774
  302.778
  302.782
  302.785
  302.788
  302.79
  302.792
  302.795
  302.797
  302.8
  302.804
  302.809
  302.817
  302.83
  302.849
  302.874
  302.903
  302.928
  302.943
  302.959
  295.136
  297.765
  299.548
  300.413
  300.965
  301.419
  301.771
  302.056
  302.28
  302.448
  302.57
  302.654
  302.708
  302.741
  302.762
  302.775
  302.783
  302.789
  302.793
  302.797
  302.8
  302.804
  302.807
  302.81
  302.813
  302.816
  302.819
  302.823
  302.826
  302.831
  302.838
  302.847
  302.861
  302.878
  302.898
  302.917
  302.911
  302.94
  298.246
  298.168
  298.162
  300.331
  301.225
  301.654
  301.966
  302.213
  302.395
  302.522
  302.614
  302.681
  302.729
  302.762
  302.784
  302.799
  302.808
  302.814
  302.818
  302.821
  302.824
  302.826
  302.827
  302.829
  302.831
  302.833
  302.834
  302.836
  302.838
  302.839
  302.841
  302.844
  302.848
  302.853
  302.86
  302.874
  302.885
  302.891
  302.892
  302.929
)
;

boundaryField
{
  floor
  {
    type wallHeatTransfer;
    Tinf uniform 305.2;
    alphaWall uniform 0.24;
    value nonuniform List<scalar> 29
(
  302.814
  303.138
  303.055
  303.024
  303.034
  303.051
  303.07
  303.092
  303.114
  303.136
  303.158
  303.179
  303.198
  303.217
  303.234
  303.252
  303.269
  303.288
  303.295
  303.333
  303.333
  303.189
  303.123
  303.086
  302.814
  303.138
  303.076
  302.863
  302.787
)
;
  }
  ceiling
  {
    type wallHeatTransfer;
    Tinf uniform 303.2;
    alphaWall uniform 0.24;
    value nonuniform List<scalar> 43
(
  298.575
  298.486
  298.471
  300.499
  301.344
  301.751
  302.047
  302.282
  302.455
  302.576
  302.665
  302.73
  302.778
  302.812
  302.836
  302.853
  302.864
  302.872
  302.876
  302.879
  302.881
  302.882
  302.883
  302.884
  302.885
  302.885
  302.885
  302.885
  302.885
  302.885
  302.885
  302.886
  302.887
  302.89
  302.894
  302.905
  302.914
  302.92
  302.923
  302.958
  304.524
  304.248
  295.615
)
;
  }
  sWall
  {
    type wallHeatTransfer;
    Tinf uniform 315.2;
    alphaWall uniform 0.36;
    value uniform 299.885;
  }
  nWall
  {
    type wallHeatTransfer;
    Tinf uniform 307.2;
    alphaWall uniform 0.36;
    value nonuniform List<scalar> 6
(
  303.521
  303.466
  303.384
  303.56
  303.539
  303.581
)
;
  }
  sideWalls
  {
    type empty;
  }
  glass1
  {
    type wallHeatTransfer;
    Tinf uniform 315.2;
    alphaWall uniform 4.3;
    value nonuniform List<scalar> 9
(
  311.421
  310.72
  310.274
  309.93
  309.644
  309.387
  309.194
  309.268
  309.507
)
;
  }
  glass2
  {
    type wallHeatTransfer;
    Tinf uniform 307.2;
    alphaWall uniform 4.3;
    value nonuniform List<scalar> 2
(
  305.491
  305.62
)
;
  }
  sun
  {
    type wallHeatTransfer;
    Tinf uniform 305.2;
    alphaWall uniform 0.24;
    value nonuniform List<scalar> 14
(
  303.18
  302.913
  302.899
  302.887
  302.876
  302.866
  302.856
  302.846
  302.836
  302.825
  302.814
  302.806
  302.802
  302.805
)
;
  }
  heatsource1
  {
    type fixedGradient;
    gradient uniform 0;
  }
  heatsource2
  {
    type fixedGradient;
    gradient uniform 0;
  }
  Table_master
  {
    type zeroGradient;
  }
  Table_slave
  {
    type zeroGradient;
  }
  inlet
  {
    type fixedValue;
    value uniform 290.15;
  }
  outlet
  {
    type zeroGradient;
  }
} 	// ************************************************************************* //

