/*--------------------------------*- C++ -*----------------------------------*=========                 |
  \      /  F ield         | OpenFOAM: The Open Source CFD Toolbox
   \    /   O peration     | Website:  https://openfoam.org
    \  /    A nd           | Version:  6
     \/     M anipulation  |
\*---------------------------------------------------------------------------*/
FoamFile
{
    version     2.0;
    format      ascii;
    class       volScalarField;
    location    "2500";
    object      PPD;
}
// * * * * * * * * * * * * * * * * * * * * * * * * * * * * * * * * * * * * * //

dimensions      [0 0 0 0 0 0 0];

internalField   nonuniform List<scalar> 
459
(
59.33977243029186
47.636359881691696
46.238765793096036
45.01521780846712
44.19277770270861
43.718279345390286
43.56762202310256
43.76114919750764
44.26191073998274
45.15971485918233
46.483012244876576
48.37711701173013
50.90722226765978
52.99881825385336
53.232990347729455
56.666167521853765
55.964679921678844
55.730707144915776
55.834702757241935
55.964679921678844
56.09463654925081
56.00449637890462
55.76925723726684
55.73912448071377
55.78844684801252
55.842712756214326
55.9457447328589
56.07841133602863
56.23539792406182
56.522037962036585
57.033612288911726
57.47056523850297
57.65202216969082
58.27356963767014
57.315422623065245
48.764853120129786
48.334277130299135
47.18444573898795
46.526672405956745
46.15300026952326
46.02069314222921
46.14553055664101
46.3776439384072
46.83861849591489
47.61336469226823
48.89550836945367
50.7314904796934
52.55658633589506
52.60860603970911
52.58259590720522
52.47856109366434
54.65683939152017
55.49667568566377
55.28860479988795
55.373700807342836
55.0542565261699
54.816932482802024
54.73726093300843
54.76755951740008
54.80329381275108
54.84633687230879
54.855086808737
54.86842849003905
54.915683424583165
54.974273356745115
55.11143316617849
55.50421030726349
56.48436971593454
56.770027727028
56.316975437548436
59.58984149157655
48.91915956494615
50.24844030960317
49.73034754467876
49.59025325707912
49.56630080387166
49.63783093674948
49.703809942852715
49.465648570898885
49.109002826406154
48.92430941913082
49.216207263645714
50.162436343535944
51.830337208102904
52.452553871633555
52.58259590720522
52.63461672295693
49.801306036586446
52.02529827563816
52.73218679280074
53.22612480471193
53.748250821727865
54.12356156257835
54.28131871236704
54.71183764831435
55.01067471867405
55.12024901879167
55.177248827726345
55.20417743796042
55.20032380632769
55.12182045233679
54.88358265304287
54.95905606977025
55.91819555628817
55.48925711811898
52.96237791613448
63.65766192713476
49.21658684208978
51.759249096311194
52.30145489521166
53.27098376510892
54.13410585282475
54.803028640508316
54.59307008231826
53.19717742779048
51.24730816368404
49.596834381980365
48.723971582710064
48.856157887382004
49.94125596536369
51.64705059355266
52.63461672295693
51.896268708278726
49.671804162373064
49.58132632585579
51.09429497729901
52.51373468062892
53.667367805036385
54.65174654577292
55.35695358143694
55.61113149530861
55.52573811530006
55.46642520643083
55.49504125259074
55.58932935706659
55.739529021905504
56.10084679036444
56.73075755823587
57.9412308408583
57.583709909213006
56.75993104564827
54.41444145024307
50.58726034206706
68.33680731851595
50.33648714412024
53.23096999788206
54.79691131835727
57.37604409124388
60.29445665001026
61.66963472422779
59.316141992454675
55.47957565459173
51.710356324634
49.028805025966214
47.54005831760658
47.31185931407221
48.182410730073116
49.74561406621284
51.19697017012711
51.610734301099065
51.4428738412623
51.90589025894483
53.224130192071705
54.815896618586684
56.27816900146701
57.492047258776154
58.35119377590924
58.816584328555415
58.977282465973836
58.99938908761633
58.948106668615196
58.88732632016865
58.76962257021038
58.75397675411462
58.80175695445813
58.89741387706014
58.14765840659419
56.684848720212216
53.46330550112739
53.09610870847201
60.10571025370827
59.42536702650914
50.57960781517977
72.78886294163974
52.639841029124035
56.08992712137013
57.700634550036284
61.414010818707816
62.91732326926789
62.50433858979346
58.259474822965025
54.08018588682179
50.19788967805799
47.32991437998501
45.83773772308198
45.80511795867276
47.01552198246554
49.00538849328122
51.19596850725345
52.89890274715516
54.10014395526992
55.38150784198254
57.04009120254381
57.962915173741955
58.739062884553185
59.384501434141
59.874100679605384
60.28570796442112
60.593972607947954
60.82491041191399
60.97874039805596
61.029993712566785
60.97874039805596
60.79926198080097
60.516943097796656
60.085056545829495
58.69161405800299
56.83345269340925
53.47400040876169
53.31044533136477
54.12643276963801
54.08099102477148
54.7683189484637
76.96000888102381
57.843585509546735
64.24436973738987
62.83386751749675
62.66158607346426
61.341252487431824
58.553782036715326
54.68139534968264
50.42297507578164
46.74411512975443
44.355843327228676
43.663859322964946
44.548556421357816
46.745375079752996
49.80074662683947
53.149394472864046
55.4186535149985
56.718099894460146
57.85930974763947
58.86825522801737
59.7195829329815
60.38850599254185
60.927475351644986
61.337262348125414
61.64408667543532
61.84838010256604
61.975956499216544
62.05246213589401
62.001461749940454
61.87390203142535
61.56742327617265
61.20928666598529
60.747956559485985
60.11913494367248
57.939502717825526
54.790734807474315
53.58143211573852
52.98551156375316
51.585863766204355
56.19509136972302
82.53295091065344
74.27619231844125
72.15361085051906
67.14984939536603
64.12331932785685
59.8775476903453
54.334869490848874
48.61504281580226
43.90013111315747
41.05346436634584
40.279099920849156
41.52862500193919
44.38648363439315
48.430785341521144
53.273448846544305
55.65270279110075
57.41870718994393
58.842420791883065
59.92558700090602
60.747956559485985
61.414010818707816
61.92493593657787
62.28179481775629
62.56170589012987
62.73960480144803
62.84118054466505
62.8665651930534
62.84118054466505
62.73960480144803
62.56170589012987
62.30725893358139
61.87390203142535
61.46516089319027
60.927475351644986
60.36281048143412
59.77109855830475
58.71227540263835
58.09070423870049
54.76890636325876
50.14905523984918
89.27647042506344
84.97593397077267
78.37558024660007
69.9080973105003
59.30666846053874
47.7768373439299
38.87876220075745
33.66457304674387
31.960784657041373
33.13076880101683
36.655190762516106
41.997036113347455
48.41935057206749
53.07687245515064
56.04265644895301
58.42880153451116
59.97706337952313
61.029993712566785
61.79732634661347
62.38363024715376
62.81579217049897
62.94575080270796
62.87609165702534
62.80006635368149
62.64552533527157
62.45916764511913
62.194509466495504
61.838359284688835
61.42683049529519
60.90683163328346
60.282838136200326
59.6201324371794
59.0114116833205
58.23616570855419
57.357765817467595
56.605927534227725
56.081821488775084
55.80001896349448
55.22615709951932
53.56702523303456
98.97909849150035
67.71409404182282
31.759570273078836
8.144082412216918
5.5788588841739255
12.507130322750655
23.997797834465047
35.90970736309137
44.242321997874726
50.945522229585734
55.05448388950365
57.833404331483194
59.11155494829817
59.99462707602066
60.63612258350483
61.106040369542455
61.388036826511026
61.55163297972427
61.59432546416237
61.53351348537933
61.422359808634766
61.253027959337544
61.04148778244242
60.805851698522844
60.51895455431359
60.21364117404502
59.90418763342154
59.636443153711426
59.40560513985033
59.26117561174004
59.16877580234066
59.1112068011292
59.06355925017221
59.17332267930232
59.74157156766524
61.619329793926404
65.42363268824924
57.021251303208956
92.57100814103421
25.942445928390356
5.038382709963045
11.848859383297196
22.017396654675963
30.520064656494952
37.9191695083703
44.07502223496422
49.000894154744394
52.727216445942105
55.28072779589195
57.05740494504806
58.299180184781605
59.18727066089622
59.79393816393458
60.18623238132229
60.44430340763308
60.57743239207575
60.68210998163792
60.70185938799976
60.70590044744201
60.66540433298044
60.60618617969585
60.52942306638636
60.412900159415614
60.317788585591266
60.23203492840423
60.18087402048662
60.196611940776656
60.38144955260586
60.78169811374308
61.366467356021474
62.00608005755952
62.57262210861105
63.17864761961995
65.20337916274204
61.743080102503406
59.11003285424227
20.71352612862124
26.19543760501722
21.410214814135827
7.7824826449690505
21.35127211887624
30.37031357545655
36.749682830980554
42.00929789622057
46.42225062170957
50.08148033836218
53.03591215720721
55.34486931493792
57.00081445518137
58.11356773475408
58.844996164282996
59.264110711420734
59.459454363944346
59.526961873970464
59.530802030851
59.49985214216721
59.4777098567607
59.46361802348656
59.469530319107044
59.49305892471494
59.505321883050286
59.53470803256675
59.61434623852163
59.70302121887471
59.84887657449981
60.106138721507634
60.48376460849284
61.1030602863038
62.24838526561372
64.28075608525057
65.73326814918394
66.05637832061925
64.31182300562762
62.0832308050718
59.86003056415251
60.12701119753632
)
;

boundaryField
{
    ".*"
    {
        type            zeroGradient;
    }
}


// ************************************************************************* //
