/*--------------------------------*- C++ -*----------------------------------*\
  =========                 |
  \\      /  F ield         | OpenFOAM: The Open Source CFD Toolbox
   \\    /   O peration     | Website:  https://openfoam.org
    \\  /    A nd           | Version:  6
     \\/     M anipulation  |
\*---------------------------------------------------------------------------*/
FoamFile
{
    version     2.0;
    format      ascii;
    class       volScalarField;
    location    "2600";
    object      epsilon;
}
// * * * * * * * * * * * * * * * * * * * * * * * * * * * * * * * * * * * * * //

dimensions      [0 2 -3 0 0 0 0];

internalField   nonuniform List<scalar> 
459
(
0.000522986
0.000687388
0.000728495
0.000842048
0.000958736
0.00107902
0.00120882
0.00133602
0.00142572
0.00145625
0.00141164
0.00128877
0.00109955
0.000875445
0.000660679
4.83677e-05
8.52175e-05
0.00012145
0.000120831
0.000109305
9.48941e-05
7.83086e-05
6.38317e-05
5.2347e-05
4.3391e-05
3.63738e-05
3.08168e-05
2.638e-05
2.2781e-05
1.97712e-05
1.71367e-05
1.46764e-05
1.32638e-05
1.02024e-05
0.00131739
0.00186093
0.00065097
0.000633502
0.000669618
0.000727222
0.000809926
0.000910549
0.000998843
0.00104705
0.0010362
0.000963087
0.000837538
0.000687164
0.000572262
0.000717104
0.000143254
5.78476e-05
0.000137099
0.000146519
0.000134001
0.000114455
9.60371e-05
8.67018e-05
7.0167e-05
5.55625e-05
4.40094e-05
3.51113e-05
2.82868e-05
2.30533e-05
1.9045e-05
1.60898e-05
1.42888e-05
1.35388e-05
3.5051e-05
2.37633e-05
0.00238426
0.00448837
0.000816366
0.000614142
0.000652033
0.000743969
0.000875332
0.00102727
0.00115351
0.0012198
0.00121182
0.00113438
0.000999671
0.000841022
0.000696487
0.000629647
0.000777086
0.00041748
0.00030636
0.000234209
0.000182422
0.000144391
0.000121911
0.000224163
0.000153937
0.000109487
8.0608e-05
6.12515e-05
4.78765e-05
3.83944e-05
3.15678e-05
2.6686e-05
2.02471e-05
1.70639e-05
6.68138e-05
3.7813e-05
0.00382665
0.00920746
0.00130678
0.000644083
0.000662923
0.000800523
0.00101351
0.00123855
0.00139391
0.00145713
0.00143099
0.00133017
0.00116313
0.000973423
0.000803453
0.000689999
0.000671864
0.00127429
0.000724719
0.00043808
0.000294383
0.000212573
0.000161996
0.000138691
0.000318907
0.000240631
0.000193265
0.000161397
0.000136918
0.00011688
9.95143e-05
8.32523e-05
6.67813e-05
3.92253e-05
2.61812e-05
0.000114624
5.12101e-05
0.00578919
0.0162405
0.00259276
0.000821331
0.000741365
0.000945523
0.0013304
0.00162393
0.00176526
0.0017872
0.0017172
0.00156906
0.00135656
0.00111129
0.000872721
0.000675239
0.000539564
0.00048511
0.000395827
0.000312406
0.000244972
0.000192973
0.000154104
0.000128458
0.00012391
0.000115049
0.000106181
9.73258e-05
8.79928e-05
7.83583e-05
6.89785e-05
6.02005e-05
5.2131e-05
4.12047e-05
3.17894e-05
8.0651e-05
5.75472e-05
9.2684e-05
0.000158104
0.000221992
0.00848915
0.0239354
0.00579066
0.00169541
0.00126953
0.00162857
0.00213556
0.00232483
0.00233991
0.0022639
0.00212057
0.00190331
0.00161556
0.00128682
0.000964905
0.000696565
0.000508365
0.000398475
0.00032784
0.00026983
0.000218467
0.000176051
0.000143883
0.000122572
0.000112428
0.000108021
0.000105118
0.000101369
9.54515e-05
8.63861e-05
7.49261e-05
6.35029e-05
5.3243e-05
4.41272e-05
3.87741e-05
5.76616e-05
5.92712e-05
7.15016e-05
0.000295376
0.0002561
0.0114953
0.0284616
0.0116804
0.00538199
0.00402234
0.00401329
0.00379773
0.00350257
0.00321579
0.00295401
0.00268107
0.00234916
0.00194427
0.00149849
0.00107223
0.000728191
0.000496724
0.000364207
0.000288458
0.000234194
0.000189527
0.000154856
0.000131045
0.00011783
0.000113865
0.00011543
0.000118705
0.000121679
0.000122891
0.000120278
0.000109449
9.61163e-05
8.31991e-05
7.22223e-05
6.8481e-05
8.01707e-05
0.000104819
0.000177572
0.000417524
0.000391659
0.0120751
0.0297938
0.0171815
0.0122906
0.00966204
0.00753067
0.00600363
0.00499073
0.0043327
0.00386121
0.00342299
0.00291394
0.00232074
0.00169912
0.00113098
0.000703721
0.000442472
0.000304378
0.000233474
0.000188058
0.000154875
0.000132505
0.000120117
0.000116332
0.000119349
0.000127002
0.000137691
0.000150997
0.000166983
0.000185399
0.000204643
0.000212904
0.000223531
0.000247274
0.000297316
0.00046196
0.000899221
0.00182116
0.00537847
0.00144129
0.0110792
0.018152
0.0145837
0.0111735
0.00878392
0.007288
0.00639377
0.0058594
0.00546752
0.00502183
0.00438705
0.00353229
0.00258866
0.00170177
0.000963971
0.000519721
0.000321333
0.000227354
0.00017689
0.000145286
0.000125026
0.000113819
0.0001101
0.000112401
0.000119504
0.000130679
0.000145978
0.000166354
0.000193565
0.0002302
0.000279804
0.000347713
0.000441947
0.000587265
0.000800767
0.00108828
0.0014108
0.0016789
0.00187308
0.00112383
0.00372385
0.00657187
0.00842967
0.00891669
0.00890337
0.00843255
0.00743841
0.00603459
0.00443204
0.00277984
0.00167222
0.000968377
0.00054995
0.000333047
0.000228774
0.000175734
0.00014546
0.0001263
0.000114269
0.000107967
0.000106415
0.000108703
0.00011428
0.000123046
0.000135394
0.000152305
0.000175517
0.000207865
0.000253824
0.000319375
0.000411633
0.000539726
0.00070591
0.000889825
0.00103463
0.00106795
0.000936432
0.00058794
0.0037179
0.00849573
0.00848413
0.00702958
0.00608014
0.00509244
0.00401287
0.00295017
0.00200572
0.00125079
0.000760523
0.000471919
0.000314097
0.000232815
0.00019073
0.000166655
0.000150722
0.000139014
0.000130161
0.000123899
0.000120547
0.000120135
0.000122817
0.00012901
0.000139433
0.000155161
0.000177778
0.000209606
0.00025398
0.000315521
0.000400418
0.000514789
0.000658909
0.000822949
0.000944904
0.00105182
0.000804719
0.000610034
0.00267254
0.00318946
0.00360093
0.00451891
0.00400557
0.00356379
0.00322431
0.00277096
0.00222911
0.00167809
0.00118074
0.000788053
0.000520908
0.000356787
0.000259298
0.000200271
0.000163102
0.000139061
0.00012375
0.000114853
0.000110984
0.000111151
0.000114174
0.000119773
0.000127928
0.00013884
0.000152929
0.00017091
0.000193977
0.000223837
0.000261467
0.000308989
0.000369031
0.000445047
0.000540706
0.000687543
0.000733983
0.00068102
0.000552782
0.000434041
)
;

boundaryField
{
    floor
    {
        Cmu             0.09;
        kappa           0.41;
        E               9.8;
        type            epsilonWallFunction;
        value           nonuniform List<scalar> 
29
(
0.000660679
4.83677e-05
8.52175e-05
0.00012145
0.000120831
0.000109305
9.48941e-05
7.83086e-05
6.38317e-05
5.2347e-05
4.3391e-05
3.63738e-05
3.08168e-05
2.638e-05
2.2781e-05
1.97712e-05
1.71367e-05
1.46764e-05
1.32638e-05
1.02024e-05
1.02024e-05
2.37633e-05
3.7813e-05
5.12101e-05
0.000660679
4.83677e-05
5.78476e-05
0.00041748
0.00127429
)
;
    }
    ceiling
    {
        Cmu             0.09;
        kappa           0.41;
        E               9.8;
        type            epsilonWallFunction;
        value           nonuniform List<scalar> 
43
(
0.00267254
0.00318946
0.00360093
0.00451891
0.00400557
0.00356379
0.00322431
0.00277096
0.00222911
0.00167809
0.00118074
0.000788053
0.000520908
0.000356787
0.000259298
0.000200271
0.000163102
0.000139061
0.00012375
0.000114853
0.000110984
0.000111151
0.000114174
0.000119773
0.000127928
0.00013884
0.000152929
0.00017091
0.000193977
0.000223837
0.000261467
0.000308989
0.000369031
0.000445047
0.000540706
0.000687543
0.000733983
0.00068102
0.000552782
0.000434041
0.0110792
0.018152
0.0037179
)
;
    }
    sWall
    {
        Cmu             0.09;
        kappa           0.41;
        E               9.8;
        type            epsilonWallFunction;
        value           uniform 0.00267254;
    }
    nWall
    {
        Cmu             0.09;
        kappa           0.41;
        E               9.8;
        type            epsilonWallFunction;
        value           nonuniform List<scalar> 6(0.000221992 0.0002561 0.000391659 0.00058794 0.000610034 0.000434041);
    }
    sideWalls
    {
        type            empty;
    }
    glass1
    {
        Cmu             0.09;
        kappa           0.41;
        E               9.8;
        type            epsilonWallFunction;
        value           nonuniform List<scalar> 9(0.000522986 0.00131739 0.00238426 0.00382665 0.00578919 0.00848915 0.0114953 0.0120751 0.0110792);
    }
    glass2
    {
        Cmu             0.09;
        kappa           0.41;
        E               9.8;
        type            epsilonWallFunction;
        value           nonuniform List<scalar> 2(0.00144129 0.00112383);
    }
    sun
    {
        Cmu             0.09;
        kappa           0.41;
        E               9.8;
        type            epsilonWallFunction;
        value           nonuniform List<scalar> 
14
(
0.000522986
0.000687388
0.000728495
0.000842048
0.000958736
0.00107902
0.00120882
0.00133602
0.00142572
0.00145625
0.00141164
0.00128877
0.00109955
0.000875445
)
;
    }
    heatsource1
    {
        Cmu             0.09;
        kappa           0.41;
        E               9.8;
        type            epsilonWallFunction;
        value           nonuniform List<scalar> 3(9.2684e-05 0.000158104 0.000221992);
    }
    heatsource2
    {
        Cmu             0.09;
        kappa           0.41;
        E               9.8;
        type            epsilonWallFunction;
        value           nonuniform List<scalar> 4(0.000717104 0.000143254 0.000143254 0.000777086);
    }
    Table_master
    {
        Cmu             0.09;
        kappa           0.41;
        E               9.8;
        type            epsilonWallFunction;
        value           nonuniform List<scalar> 9(0.000224163 0.000153937 0.000109487 8.0608e-05 6.12515e-05 4.78765e-05 3.83944e-05 3.15678e-05 2.6686e-05);
    }
    Table_slave
    {
        Cmu             0.09;
        kappa           0.41;
        E               9.8;
        type            epsilonWallFunction;
        value           nonuniform List<scalar> 9(0.000318907 0.000240631 0.000193265 0.000161397 0.000136918 0.00011688 9.95143e-05 8.32523e-05 6.67813e-05);
    }
    inlet
    {
        type            turbulentMixingLengthDissipationRateInlet;
        mixingLength    0.01;
        phi             phi;
        k               k;
        value           uniform 0.000101881;
    }
    outlet
    {
        type            zeroGradient;
    }
}


// ************************************************************************* //
