/*--------------------------------*- C++ -*----------------------------------*\
  =========                 |
  \\      /  F ield         | OpenFOAM: The Open Source CFD Toolbox
   \\    /   O peration     | Website:  https://openfoam.org
    \\  /    A nd           | Version:  6
     \\/     M anipulation  |
\*---------------------------------------------------------------------------*/
FoamFile
{
    version     2.0;
    format      ascii;
    class       surfaceScalarField;
    location    "2600";
    object      phi;
}
// * * * * * * * * * * * * * * * * * * * * * * * * * * * * * * * * * * * * * //

dimensions      [1 0 -1 0 0 0 0];

internalField   nonuniform List<scalar> 
852
(
-0.00304118
0.00310097
-0.00412344
0.00108226
-0.00492687
0.000803426
-0.00553948
0.000612608
-0.0059295
0.000390021
-0.00607313
0.000143629
-0.00594935
-0.000123779
-0.00554792
-0.000401424
-0.00489545
-0.000652477
-0.00405765
-0.0008378
-0.00312553
-0.000932116
-0.00219553
-0.00093
-0.00135307
-0.000842457
-0.000638037
-0.000715036
-0.000635974
-0.000807199
0.000810885
-0.000466135
-0.000341064
0.000210333
-0.000676467
0.000748348
-0.000538015
0.00110989
-0.000361539
0.00133717
-0.000227287
0.00146091
-0.000123739
0.00152128
-6.03686e-05
0.00155468
-3.34e-05
0.00157473
-2.00529e-05
0.00158569
-1.09569e-05
0.00158906
-3.36623e-06
0.00158295
6.11161e-06
0.00155866
2.42835e-05
0.00149277
6.58899e-05
0.00134578
0.00014699
0.00110472
0.000241063
0.000807464
0.000297256
0.000812448
-0.00216478
0.00542639
-0.00321077
0.00212825
-0.00403236
0.00162501
-0.00463365
0.0012139
-0.00501641
0.000772789
-0.00516544
0.000292656
-0.00505716
-0.000232064
-0.00468789
-0.000770692
-0.00409645
-0.00124392
-0.00335498
-0.00157927
-0.00255024
-0.00173686
-0.00176251
-0.00171772
-0.00106338
-0.00154159
-0.000528805
-0.00124961
-0.000299777
-0.000865002
5.52358e-05
-0.000355064
5.51843e-05
0.000376939
0.000444557
0.000817092
-0.000781217
0.00108878
-0.000948158
0.00132361
-0.000772848
0.00150401
-0.000541935
0.00161326
-0.000336536
0.00163099
-0.000141467
0.00163533
-6.47104e-05
0.00164061
-3.86825e-05
0.001645
-2.44394e-05
0.00164784
-1.37993e-05
0.00164922
-4.74278e-06
0.00164817
7.15849e-06
0.00164096
3.14933e-05
0.00159703
0.000109823
0.00140982
0.000334194
0.00108977
0.000561112
0.000693556
0.000693474
0.00151866
-0.00151061
0.00718242
-0.00240908
0.00302672
-0.00313267
0.00234861
-0.00364235
0.00172358
-0.00396923
0.00109966
-0.00409218
0.000415603
-0.00396754
-0.000356704
-0.00359528
-0.00114295
-0.00303795
-0.00180125
-0.00237661
-0.0022406
-0.00169094
-0.00242254
-0.00103841
-0.00237025
-0.000466219
-0.00211378
-9.96571e-06
-0.00170586
0.000292106
-0.00116707
0.000445116
-0.000508073
0.0005003
0.00161308
-0.00115722
0.00184477
-0.0010129
0.0018032
-0.000906589
0.00179492
-0.000764567
0.00181989
-0.000566907
0.00184469
-0.000361336
0.00170338
0.00163882
0.00160029
0.001576
0.00156236
0.00155777
0.00156508
0.00159673
0.00170671
0.00139882
0.00064208
0.00103129
0.000928645
0.000583773
0.00114099
0.00212155
-0.00105005
0.00855007
-0.00175832
0.00373499
-0.00222936
0.00281965
-0.00255308
0.0020473
-0.00274987
0.00129646
-0.00277792
0.000443652
-0.00257263
-0.000561999
-0.00216628
-0.0015493
-0.00165177
-0.00231575
-0.00110537
-0.00278701
-0.00058438
-0.00294352
-0.00011349
-0.00284114
0.000293714
-0.00252099
0.00063609
-0.00204824
0.000949692
-0.00148068
0.00132182
-0.000880202
0.00218708
-0.000364962
0.00264024
-0.000442936
0.00221178
-0.000728761
0.00206701
-0.000868132
0.00194211
-0.000781692
0.00183546
-0.000657918
0.00177694
-0.000508386
0.00174823
-0.000332627
0.00189147
-0.000143391
0.00198195
-9.06337e-05
0.0020531
-7.12986e-05
0.00210462
-5.16746e-05
0.00212034
-1.58751e-05
0.0020781
4.2089e-05
0.00195305
0.000124892
0.00171259
0.00024031
0.00129995
0.000412483
0.00114803
0.000793998
0.000822591
0.00125409
0.000330768
0.00163281
0.0024773
-0.000732106
0.00966111
-0.00126612
0.00426901
-0.00134929
0.00290282
-0.00138456
0.00208257
-0.00136482
0.00127672
-0.00118035
0.000259174
-0.000810592
-0.000931753
-0.000372302
-0.00198759
4.70265e-05
-0.00273508
0.000402746
-0.00314272
0.000684524
-0.0032253
0.000898006
-0.00305462
0.0010659
-0.00268888
0.00121316
-0.0021955
0.0013732
-0.00164071
0.00159288
-0.00109989
0.00191272
-0.000684799
0.00203208
-0.000562291
0.00193199
-0.00062868
0.00174042
-0.000676557
0.00157828
-0.000619549
0.0014458
-0.000525438
0.00135567
-0.000418264
0.00132299
-0.000299948
0.00137624
-0.000196638
0.00143711
-0.000151501
0.00150081
-0.000135
0.00156224
-0.000113102
0.00160838
-6.20186e-05
0.00161796
3.25151e-05
0.00157084
0.000172009
0.00145629
0.000354859
0.00127677
0.000591999
0.00111684
0.000953928
0.00094074
0.00143019
0.000540123
0.00203343
0.000414878
0.00260255
-0.00111539
0.00153006
-0.00157875
0.000463158
-0.00152474
-0.000635063
0.0107269
-0.000993441
0.00462739
-0.000533663
0.00244305
-9.75629e-05
0.00164647
0.000295518
0.000883634
0.000808642
-0.000253949
0.00133355
-0.00145666
0.00171637
-0.00237041
0.0019356
-0.00295431
0.00201281
-0.00321993
0.00198929
-0.00320178
0.0018947
-0.00296004
0.00176684
-0.00256102
0.00164272
-0.00207138
0.0015535
-0.0015515
0.00152072
-0.0010671
0.0015339
-0.000697986
0.00148951
-0.000517897
0.00134671
-0.000485879
0.00115004
-0.000479886
0.0009749
-0.000444412
0.000840451
-0.000390989
0.000754521
-0.000332334
0.000727054
-0.000272481
0.000757104
-0.000226688
0.000817051
-0.000211448
0.000892888
-0.000210838
0.000978171
-0.000198385
0.0010658
-0.00014965
0.00113947
-4.11526e-05
0.00118071
0.00013077
0.00119071
0.000344856
0.00117766
0.00060505
0.00119152
0.000940067
0.00128573
0.00133598
0.00146782
0.00185134
0.00195998
0.00211039
0.00224112
0.00124892
0.00185134
0.000852938
0.000391307
-0.000661665
0.0118665
-0.000513365
0.00447909
0.000720661
0.00120902
0.00164644
0.000720689
0.0025057
2.43753e-05
0.00329806
-0.00104632
0.00378165
-0.00194025
0.00395626
-0.00254502
0.00386858
-0.00286664
0.00358336
-0.00293471
0.00317221
-0.00279063
0.00269877
-0.0024866
0.00222078
-0.00208303
0.00178539
-0.00163599
0.00142158
-0.00118769
0.00114272
-0.000788237
0.000940299
-0.000495566
0.000765558
-0.000343157
0.000580631
-0.000300951
0.000396744
-0.000296
0.000241566
-0.000289234
0.000127919
-0.000277342
6.0063e-05
-0.000264478
4.13434e-05
-0.000253762
6.69485e-05
-0.000252293
0.000120753
-0.000265253
0.000191631
-0.000281716
0.00027791
-0.000284664
0.000383861
-0.000255601
0.000514037
-0.000171329
0.000648086
-3.27963e-06
0.000776481
0.000216461
0.000917178
0.000464354
0.00110962
0.000747626
0.00140699
0.00103861
0.00188376
0.00137456
0.00262297
0.00137118
0.00322007
0.000651825
0.00328371
0.000789293
0.00374435
0.00277221
0.00962958
0.0035541
0.0036972
0.00418191
0.000581202
0.00519412
-0.000291519
0.00612042
-0.000901928
0.00657699
-0.00150288
0.00659012
-0.00195337
0.00623267
-0.00218757
0.0055947
-0.00222867
0.00477647
-0.00211648
0.00387688
-0.00189105
0.00297848
-0.00158819
0.00214793
-0.00125249
0.00143197
-0.00092002
0.000849684
-0.000605406
0.000409979
-0.000348531
0.000103889
-0.000189476
-0.000111913
-0.000127355
-0.000282981
-0.000129883
-0.000426138
-0.000152843
-0.000540667
-0.000174704
-0.00062455
-0.000193458
-0.000677892
-0.000211136
-0.000701731
-0.000229922
-0.00070131
-0.000252714
-0.000686769
-0.000279794
-0.000664134
-0.000304351
-0.000631956
-0.000316842
-0.000580441
-0.000307116
-0.000488741
-0.000263029
-0.000326019
-0.000166001
-0.000122534
1.29763e-05
0.000105573
0.000236247
0.000388086
0.000465113
0.000731675
0.000695026
0.00118793
0.000918309
0.00167069
0.000888416
0.00180648
0.000516036
0.000973289
0.00162248
0.00501084
0.0102226
0.0139159
0.0129808
0.00151624
0.0123585
0.000330788
0.0115998
-0.000143184
0.0105535
-0.00045658
0.00923901
-0.000638901
0.00776929
-0.000717854
0.00624606
-0.000705435
0.00475697
-0.000627389
0.003381
-0.000515073
0.00216765
-0.000374848
0.00115036
-0.000235192
0.000337675
-0.000107338
-0.000262136
-5.59501e-06
-0.000649395
3.87279e-05
-0.000876701
3.78294e-05
-0.00102054
1.64873e-05
-0.0011328
-1.76273e-05
-0.00123054
-5.50987e-05
-0.00131583
-8.94128e-05
-0.00138887
-0.00012042
-0.00145147
-0.000148541
-0.00150689
-0.000174496
-0.00156099
-0.00019862
-0.00162192
-0.00021886
-0.00169723
-0.000229043
-0.0017943
-0.000219772
-0.00192244
-0.00017898
-0.00209386
-9.16024e-05
-0.00231548
5.56197e-05
-0.0025733
0.000270798
-0.0029099
0.000572845
-0.00342578
0.000980986
-0.00421834
0.00148759
-0.0053428
0.00204276
-0.00690708
0.00245269
-0.00876112
0.00237008
-0.00813303
0.000994386
-0.00279646
0.00437491
0.00337777
0.00335705
0.00134865
0.00364555
-0.000431684
0.00358026
-0.000391294
0.00311904
-0.000177674
0.00242985
-2.86673e-05
0.00162551
9.89032e-05
0.000800129
0.000197994
2.94581e-05
0.000255598
-0.000615786
0.000270396
-0.00109747
0.000246495
-0.00142342
0.000218606
-0.00161424
0.000185227
-0.00171942
0.000143906
-0.00178524
0.000103653
-0.0018369
6.81473e-05
-0.00189077
3.62446e-05
-0.00195321
7.33744e-06
-0.00202227
-2.0354e-05
-0.00209455
-4.81418e-05
-0.00217149
-7.15958e-05
-0.00225596
-9.00242e-05
-0.00235147
-0.000103115
-0.00246094
-0.000109392
-0.0025847
-0.000105276
-0.00271941
-8.50653e-05
-0.00285649
-4.1904e-05
-0.0029812
3.31133e-05
-0.0030856
0.000160019
-0.00317409
0.000359291
-0.00325725
0.000655997
-0.00334699
0.00107074
-0.00344713
0.00158773
-0.00349869
0.00209432
-0.00341061
0.00236462
-0.00298485
0.00194432
-0.00165686
-0.000333605
-0.00436851
-0.000795212
0.0042573
-0.000353585
0.000907023
-0.00103266
0.000247387
-0.0015534
0.000129454
-0.00190688
0.000175806
-0.00216905
0.0002335
-0.00235452
0.000284374
-0.00248252
0.000325993
-0.00256499
0.000338069
-0.00260791
0.00031331
-0.00262376
0.000262353
-0.00261205
0.000206892
-0.00258128
0.000154458
-0.00254614
0.000108765
-0.00251612
7.36348e-05
-0.00249601
4.80314e-05
-0.00248841
2.86443e-05
-0.00249373
1.26563e-05
-0.00251012
-3.95582e-06
-0.00253754
-2.07283e-05
-0.00257512
-3.40116e-05
-0.00262204
-4.31107e-05
-0.00267722
-4.79269e-05
-0.00273888
-4.77333e-05
-0.00280343
-4.07288e-05
-0.00286466
-2.384e-05
-0.00291379
7.23041e-06
-0.00293574
5.50645e-05
-0.00290741
0.000131693
-0.00280179
0.000253668
-0.00258349
0.0004377
-0.00222386
0.000711097
-0.00172551
0.00108938
-0.00107186
0.00144067
-4.21364e-05
0.00133489
0.00127672
0.000625471
0.00159438
-0.000651269
-0.00268078
-0.00789374
-0.0111528
-0.0068403
-0.00590518
-0.00563862
-0.00549377
-0.00530489
-0.00505997
-0.00476531
-0.00442978
-0.00408256
-0.00376019
-0.00348862
-0.00327225
-0.00310801
-0.00298918
-0.00290521
-0.00284661
-0.0028072
-0.00278365
-0.00277666
-0.00278644
-0.00280957
-0.0028419
-0.00287918
-0.00291645
-0.00294693
-0.00296076
-0.00294379
-0.00287928
-0.00273848
-0.00247605
-0.00202997
-0.0013109
-0.000213996
0.00123357
0.00257505
0.00320707
0.00256261
)
;

boundaryField
{
    floor
    {
        type            calculated;
        value           nonuniform List<scalar> 
29
(
0
0
0
0
0
0
0
0
0
0
0
0
0
0
0
0
0
0
0
0
-4.98408e-06
-1.26543e-05
-1.91138e-05
-2.49876e-05
-2.06236e-06
-3.68634e-06
-1.06107e-05
-1.13033e-05
-1.02202e-05
)
;
    }
    ceiling
    {
        type            calculated;
        value           nonuniform List<scalar> 
43
(
-5.92132e-05
-5.69896e-05
-5.52057e-05
-2.80961e-05
-1.91654e-05
-1.54039e-05
-1.3067e-05
-1.14234e-05
-1.02857e-05
-9.54231e-06
-9.14445e-06
-9.06064e-06
-9.21341e-06
-9.48134e-06
-9.77849e-06
-1.00671e-05
-1.03349e-05
-1.05718e-05
-1.07624e-05
-1.08911e-05
-1.09512e-05
-1.09442e-05
-1.08857e-05
-1.07826e-05
-1.06401e-05
-1.04628e-05
-1.02517e-05
-1.00112e-05
-9.74183e-06
-9.44067e-06
-9.11403e-06
-8.75972e-06
-8.378e-06
-7.96885e-06
-7.52775e-06
-6.89632e-06
-6.58465e-06
-6.55219e-06
-6.81035e-06
-6.45618e-06
6.31593e-06
3.88888e-06
-8.43185e-05
)
;
    }
    sWall
    {
        type            calculated;
        value           uniform -0.000279278;
    }
    nWall
    {
        type            calculated;
        value           nonuniform List<scalar> 6(-5.42185e-05 -6.47044e-05 -6.93308e-05 -8.48117e-05 -9.33431e-05 -0.000111711);
    }
    sideWalls
    {
        type            empty;
        value           nonuniform 0();
    }
    glass1
    {
        type            calculated;
        value           nonuniform List<scalar> 9(-5.97905e-05 -0.000160636 -0.000245418 -0.000317608 -0.000378938 -0.000430704 -0.000477974 -0.000535268 -0.000599298);
    }
    glass2
    {
        type            calculated;
        value           nonuniform List<scalar> 2(-0.000293203 -0.000325727);
    }
    sun
    {
        type            calculated;
        value           uniform 0;
    }
    heatsource1
    {
        type            calculated;
        value           nonuniform List<scalar> 3(2.05029e-07 2.04925e-07 2.04944e-07);
    }
    heatsource2
    {
        type            calculated;
        value           nonuniform List<scalar> 4(5.14193e-08 5.1526e-08 0 0);
    }
    Table_master
    {
        type            calculated;
        value           nonuniform List<scalar> 9(-1.53773e-07 -1.53866e-07 -1.53899e-07 -1.53921e-07 -1.53936e-07 -1.53947e-07 -1.53951e-07 -1.53945e-07 -1.5391e-07);
    }
    Table_slave
    {
        type            calculated;
        value           nonuniform List<scalar> 9(1.5363e-07 1.53652e-07 1.53629e-07 1.53611e-07 1.53607e-07 1.5361e-07 1.5363e-07 1.5368e-07 1.53771e-07);
    }
    inlet
    {
        type            calculated;
        value           uniform -0.00623644;
    }
    outlet
    {
        type            calculated;
        value           nonuniform List<scalar> 2(0.00823223 0.00331605);
    }
}


// ************************************************************************* //
