/*--------------------------------*- C++ -*----------------------------------*=========                 |
  \      /  F ield         | OpenFOAM: The Open Source CFD Toolbox
   \    /   O peration     | Website:  https://openfoam.org
    \  /    A nd           | Version:  6
     \/     M anipulation  |
\*---------------------------------------------------------------------------*/
FoamFile
{
    version     2.0;
    format      ascii;
    class       volScalarField;
    location    "2600";
    object      PMV;
}
// * * * * * * * * * * * * * * * * * * * * * * * * * * * * * * * * * * * * * //

dimensions      [0 0 0 0 0 0 0];

internalField   nonuniform List<scalar> 
459
(
1.6555190643417814
1.439681038478373
1.4134884523362754
1.390550041291354
1.3745821182707818
1.3657211137929015
1.3630635019253792
1.3669912461442306
1.376798725705364
1.3936046927081394
1.4193724804748153
1.4551398170540584
1.5024661301590503
1.5388430626302845
1.5431425124006133
1.6076163092133562
1.5947238540839437
1.5899485310208104
1.591858682031115
1.5942463299610654
1.5971114472794554
1.5954183450154484
1.59088629488472
1.5906757829349096
1.591511384596765
1.5929258967936546
1.594779273648302
1.597180756492921
1.600493224495634
1.6057171666437664
1.6150714721535915
1.624326709305866
1.6276685061822795
1.6396027070751589
1.6177733921975659
1.4607012284467062
1.4525496429825056
1.4312271460043624
1.4190301088547221
1.4116500515663215
1.4093720698961032
1.4119455955292881
1.4165702904600894
1.4249882052840275
1.439767137768682
1.4634493266323012
1.4983039790259072
1.5302437721886246
1.5311992744114367
1.5311992744114367
1.5311992744114367
1.5721503147266354
1.5851730272871016
1.5818300681709152
1.5833101183161482
1.5774170461649226
1.5729304763486236
1.5714021401778273
1.571926813586689
1.5735084028493684
1.5742927749355002
1.574446665642673
1.575152574017115
1.576013378677138
1.5770867498280703
1.57960157181735
1.5872585878853493
1.6057064012789966
1.6114360348835148
1.6033934613752983
1.660260021284021
1.4636516333704732
1.4879513783668021
1.4785031811023792
1.4760029769506062
1.4751751442866516
1.4766946626876472
1.4775681332445405
1.4728151588700134
1.465866046554285
1.462612417084756
1.468693370467517
1.4869474079830536
1.5180192292488952
1.528332748764566
1.530721524092205
1.532154770289735
1.4807495345641717
1.521085909430478
1.5336878445459088
1.5426484840143797
1.5522221771770652
1.559078291925715
1.5624830619625971
1.5710396530254405
1.5766966031625869
1.5792781587584122
1.5803840010359365
1.5809250883234607
1.5809001592476168
1.5799683987215893
1.5756433114672461
1.5774982944103202
1.5949468084707896
1.5876446454297435
1.5418294103554926
1.7362190661271817
1.4697499787937496
1.5162555848052826
1.5264388657457009
1.54391840424663
1.5599244862154722
1.571857841452847
1.5672455749065755
1.540859995133253
1.5040040997262674
1.4737116996086916
1.4578028240854612
1.4611375794647368
1.482358041429192
1.5137082442120915
1.5311992744114367
1.5156720465991986
1.4752939670112042
1.4742893833044983
1.5014456209716267
1.5278472605490814
1.5490653113848258
1.5677413373992872
1.5813750999709446
1.5866918742145881
1.5851784581274988
1.5846503160035692
1.5853192338073923
1.5867343462855679
1.590139388908076
1.5968957957396945
1.6085374249429536
1.6308047479124326
1.6247410414787888
1.6099538278721388
1.5679619196370842
1.4983656260181626
1.825488280100391
1.4899377219175776
1.5432860231976375
1.5723407571679748
1.6206655563576187
1.6747660097638468
1.6987771737961417
1.6517019655014773
1.5802689847363012
1.5111789160812643
1.4616523837629978
1.4349313821035237
1.4320466069803541
1.44896736148878
1.4778867354938332
1.5044959084859462
1.5111284338289213
1.5077459468639172
1.5163327314259054
1.540870280141466
1.5704180315191192
1.5972765418091128
1.6197232098794634
1.6367945572725824
1.646518140950557
1.6486760462321879
1.649266064473642
1.648980373888688
1.648047092754595
1.646058506812621
1.6459007249651063
1.6468607413564895
1.648666759795232
1.6348419687832596
1.6087394682502711
1.550112229665416
1.5436351462731872
1.673488889676329
1.6604023305621787
1.4986255985779051
1.9155622572118365
1.5328645797325895
1.5962721463895242
1.626285994071209
1.694960474368598
1.72358213407927
1.7108439034150837
1.631250154592682
1.5536073788377647
1.4822576189967251
1.4295828308385041
1.4031354565383487
1.4033891716142513
1.4267629533078556
1.4647395888272314
1.5048369794675494
1.5359040069795145
1.557404903617019
1.5811804718388067
1.6114888295572682
1.63053282716735
1.645330679728141
1.6572630123616927
1.6663307163518588
1.6739660840846857
1.6801694145047095
1.68446381207014
1.687326644796303
1.6887580312911799
1.687326644796303
1.683986665563745
1.679215079871147
1.670706516326318
1.6454317380466286
1.6111339952933748
1.5498893291989548
1.5470465986937387
1.5633745219003814
1.5626238784415527
1.5749336176609707
2.0048162046781677
1.6284920562702456
1.7473319409984012
1.721894736401234
1.7179396440775916
1.6914633347841934
1.6378944594214546
1.5649235008810938
1.4854462976854343
1.417633585621211
1.3737045311108853
1.362000548796043
1.380575888164749
1.4225301222491376
1.4798324402425316
1.5418115078488854
1.5832627756228437
1.6071388350398743
1.6281458979196701
1.6472399391030788
1.6629900716631973
1.676352023756725
1.686372376056471
1.6940062769776218
1.6997313260320106
1.7040248984355677
1.7064101363717408
1.7078412515328747
1.7073642154510058
1.7045019506126602
1.6987771737961417
1.6916207442549436
1.6835095168577865
1.6717568790581783
1.6314841731143326
1.5740377123698592
1.5517657006480416
1.5415357326451797
1.516436118733716
1.600791379467168
2.1370912612316024
1.9471673790334088
1.9030057583031623
1.8035726560393022
1.7442985745818913
1.6618721110541808
1.5573721741917796
1.4507635890842532
1.3629025874326783
1.309400054758667
1.296359298588467
1.3224555424031632
1.378771126438569
1.456136205195817
1.5461766068346705
1.5880383511033707
1.620984817158838
1.6472399391030788
1.6672851671981632
1.683032365954263
1.6954375696915833
1.7049790004969883
1.712134472138172
1.7173814855146619
1.7207203459995886
1.7226282142227785
1.72358213407927
1.7231051753408195
1.7211973166135088
1.7178584726596953
1.7126114850391214
1.7049790004969883
1.6968688421444231
1.687326644796303
1.676352023756725
1.6653762570185127
1.6455207574778583
1.6340782645873688
1.5738670429767054
1.489967402989655
2.334276942724464
2.202770313125965
2.036736588400962
1.8559323140240354
1.6470862627572742
1.4310627393482602
1.2613894465289544
1.1579290322644313
1.1245845082578894
1.1530842597599567
1.2281245719817888
1.3354724761473011
1.4579172633464943
1.541231662055924
1.5966339323024943
1.6410347274763095
1.6691940433630907
1.6887580312911799
1.7030707872121216
1.7140425097512546
1.7221512507273673
1.7240256576365571
1.723185513948477
1.7213125967690632
1.718921105800632
1.7154993503179674
1.7106337739285384
1.704071748893181
1.6964846652252248
1.6868777992915738
1.6753455909606547
1.6632049280844856
1.6514800120966464
1.6377000789923493
1.6215831787466555
1.6078378038508652
1.5988092629310195
1.593662345793188
1.5825865633110772
1.5527776094428376
-2.974420696558442
-1.836589576292365
-1.1374478493592757
-0.3898600499961428
0.1710556565348562
0.6050421202069545
0.956902996466584
1.2180063549703501
1.3811162073522212
1.5063541946624865
1.5799197667248364
1.631010207115245
1.652088512695783
1.668204323604678
1.6809193918206475
1.6894146866576316
1.6947969392380453
1.6979408165789014
1.698782590139747
1.6976561234579248
1.6955983616936154
1.6929547145343031
1.6890691696364961
1.684276843655305
1.6790391872758927
1.673481454850031
1.6678623236382202
1.66301639678768
1.6593443734376851
1.6562406014083666
1.654586699106331
1.6535810606569117
1.6527664817089536
1.654854435095559
1.665399985356149
1.7007469878000514
1.7719210025635086
1.6160055063450744
-2.4666958799720127
-0.9986215998986472
0.045055720731988276
0.5771614142629915
0.9016162298799928
1.1043564269315203
1.2579540625054957
1.3765127590188404
1.4684011026923942
1.5368069905019621
1.5829373584336102
1.6152677733734666
1.6383064208680018
1.654358151179398
1.6656867283444887
1.6730418181931428
1.6774057307516677
1.6804083020258846
1.6818703661658045
1.6827607212197773
1.6828761223001834
1.6821674121219312
1.6811145241180094
1.6792514012631823
1.6776380488755038
1.6759399587006205
1.6739254215881807
1.6735344050299528
1.6738782196058952
1.6768514819848759
1.6843087907300485
1.695707274080047
1.7077159654617715
1.7179121203399992
1.7298030557711597
1.7681027590110487
1.7029303337963475
1.6543586212967964
-0.8557359550113973
-0.994648361798135
-0.8743134129244617
0.37497506167589706
0.8883430458771246
1.1044969639133264
1.2370415531878993
1.339659157184017
1.4225938851760915
1.4899508690015517
1.5437534106498418
1.585579048260718
1.6154606288167601
1.6359573406885648
1.6490229282196114
1.656898233575663
1.6606852144533877
1.6616197168726592
1.6618652130757288
1.6614310098513767
1.6611123219133588
1.6609465335339928
1.6611190365763124
1.6610886463803816
1.661838154512074
1.6623866455688283
1.6633512024631063
1.6654673754881033
1.6681167129547543
1.6727951256533635
1.6797092457780805
1.6911206991238772
1.7123535894043844
1.7503437556766142
1.7779392471459816
1.7841357440913033
1.7515047456878075
1.7097657600540106
1.6683141804047628
1.6729233318520151
)
;

boundaryField
{
    ".*"
    {
        type            zeroGradient;
    }
}


// ************************************************************************* //
