/*--------------------------------*- C++ -*----------------------------------*=========                 |
  \      /  F ield         | OpenFOAM: The Open Source CFD Toolbox
   \    /   O peration     | Website:  https://openfoam.org
    \  /    A nd           | Version:  6
     \/     M anipulation  |
\*---------------------------------------------------------------------------*/
FoamFile
{
    version     2.0;
    format      ascii;
    class       volScalarField;
    location    "1100";
    object      PMV;
}
// * * * * * * * * * * * * * * * * * * * * * * * * * * * * * * * * * * * * * //

dimensions      [0 0 0 0 0 0 0];

internalField   nonuniform List<scalar> 
459
(
1.6616511218094892
1.4458417935412948
1.4195627355270883
1.3961667332592187
1.3807792664978977
1.3714503406234655
1.3688473030030832
1.3722972958608073
1.3821394576975974
1.3989589050706408
1.4247124620356968
1.4604335408000784
1.5081463437142089
1.5443365031475316
1.5486362841368124
1.6159798856626277
1.6026092561016103
1.5973561087563828
1.5992663699525322
1.6021317064844836
1.6045194360104211
1.6053066703992955
1.6011458297852101
1.6008329478532466
1.6020310127564454
1.603349131329479
1.6055806837297062
1.6079008822770058
1.6115875988259987
1.6166820613484525
1.6262728206484893
1.6346007607032649
1.6384200581961768
1.6503545331643654
1.6246410429234444
1.4669660368961992
1.458621608930946
1.437399780059769
1.4247608175622049
1.4174442843572583
1.4147134416784803
1.4168271670478934
1.4209927822051824
1.4294507468870394
1.4442524462849458
1.4684166449644815
1.5027608442423368
1.534780962990243
1.5362143350692503
1.5366921225607673
1.539081035929111
1.5811875990741766
1.5925803277006303
1.588281969557744
1.5901923690122475
1.58567152195322
1.5813623868693505
1.5803736625027154
1.581359292472263
1.582919512160019
1.5836934584947575
1.5847776788586947
1.5854817317375052
1.5868007396001607
1.5883285902963002
1.590810102985133
1.5988147367893306
1.6155023886811772
1.6217097000853302
1.6141004085447086
1.6662943376956716
1.4706193127370124
1.4940001323053977
1.484701168943373
1.481784525944276
1.481033102713348
1.4821305246484873
1.4825521942460536
1.4778351168619612
1.470397866721113
1.4666458438086434
1.4722080540467768
1.4908860840841276
1.5218116472211796
1.532391977614177
1.5352587552822505
1.5376476927311797
1.4881691034696607
1.5278759987669912
1.540067916032825
1.5492447589874723
1.5591152540007365
1.566731537288078
1.5703084913250127
1.5789431175248967
1.5851298985317535
1.5882663397893337
1.5899406883031533
1.5910426610828223
1.5915739016497505
1.5912131812361896
1.58705285677126
1.5894508344440936
1.6071258742015926
1.599191445500299
1.553321296610555
1.7423879987067334
1.4763905172829226
1.522280674348941
1.5326405631453752
1.5502506331515276
1.5658887607167726
1.577444120402302
1.5717579918248792
1.5447509323443367
1.5078360251660496
1.4770259042587779
1.461081843863096
1.4644039856034174
1.4854669344837526
1.5170518478494266
1.5352587552822505
1.5194827423193178
1.4790588562224931
1.478959910528776
1.5061981537068991
1.5328054155694162
1.5543715446789361
1.573483241870547
1.5880699622294332
1.5936405654702417
1.5934638075159127
1.5936928983745542
1.5949905399980333
1.5973320647342042
1.6014872982629758
1.6082773331412337
1.620219342455555
1.6422292518066006
1.6361404887505364
1.6217374799557787
1.5791083764427347
1.5092041523929531
1.8317472712712688
1.4972554861136855
1.5498028060941442
1.5789780078589168
1.6270437079191535
1.681581453620774
1.7042818996001676
1.655672078865513
1.582815980721458
1.5135324713085885
1.4641165712542117
1.436962074972579
1.434094257196703
1.4514386343251
1.4806822330213896
1.5075218191350255
1.5140254218794245
1.511331049646628
1.5203044851390481
1.5450829012117504
1.5749340323895966
1.6022560970839577
1.625776353461599
1.6427166148223622
1.6513092362211022
1.6577680661835026
1.6596867409615117
1.6600851397225884
1.660048313987337
1.658695018473846
1.6584306712010395
1.6595494962980384
1.6609580784147606
1.6469619968427303
1.6207035310346096
1.561731385637229
1.555586209614566
1.684241346910856
1.671134312412975
1.5098775297972726
1.921284575717627
1.5402900435900952
1.602786152134713
1.6328752252594358
1.701419206935395
1.7300423681330663
1.7136373087807952
1.6335671398309284
1.5554038965386139
1.4838450062675133
1.4308373029124646
1.4044974147228815
1.4052989989786844
1.4291376279854888
1.4670151037957653
1.507422515596082
1.5383475838109497
1.560404544262571
1.5845210743220224
1.6157581407883093
1.6346007607032649
1.6493998219063286
1.6618104238927995
1.6713560769258173
1.6794692093027836
1.685672945428687
1.6904447968760392
1.694262117874691
1.6956935762971541
1.6947392729281634
1.6918763090037354
1.6866273334219808
1.6799464328940774
1.6583084347895636
1.6239094838984867
1.561368662784323
1.5596095964808145
1.5745071531608807
1.5735970362254512
1.585633004434325
2.0111601354577746
1.6354185336935003
1.7540471764568708
1.7282636013764519
1.724501304504549
1.6959232623454754
1.640584224057463
1.566315513236911
1.4859872424489473
1.41729120357498
1.3739909605373701
1.3628752318496664
1.3819893427682612
1.4244190614195096
1.4821389312868372
1.5444866465602114
1.5868491510845786
1.6112048303197493
1.6326910642747336
1.651786584668892
1.6680151949265198
1.6813780905861089
1.6918763090037354
1.6995106996149205
1.7057132150622887
1.7104841170625191
1.7138236106995015
1.715731841498342
1.715731841498342
1.713346547161397
1.7080986948936245
1.7009420835133977
1.6923534752511726
1.6813780905861089
1.6449404731392698
1.5862427635276721
1.5630910655710135
1.5515162666731115
1.5267923782032617
1.612143431016996
2.1435008665460553
1.9536776263034383
1.9089777288269523
1.8100065267709853
1.7495879352183792
1.6646712736585176
1.5576241697135402
1.44952215931404
1.3612382700533205
1.3078410929596722
1.295917923540512
1.3230755583409508
1.3803912769278448
1.4582203470067334
1.5492297829419839
1.5921027395844545
1.6255294220942105
1.652263931060235
1.6727878514236592
1.6890132647156513
1.701419206935395
1.7114382697226973
1.7190711551423732
1.7247954236124465
1.7286114120532448
1.7314733025251572
1.7329042151678418
1.7329042151678418
1.7314733025251572
1.7286114120532448
1.7238414026094646
1.7162088933486215
1.707621603531497
1.6976021560224304
1.6871045241066824
1.6761285833322885
1.652691868826871
1.639120118272456
1.5799686229128356
1.5002977269605065
2.3401454081306254
2.2083065156702784
2.042803250673013
1.8608470548029432
1.6457834241068707
1.425907050808973
1.2552682485947328
1.1525348898105512
1.120984476652869
1.15121631005692
1.2283912671182566
1.3377394787115346
1.4611361573272386
1.5448142631403818
1.6016541550152055
1.6465356390861956
1.675651342385909
1.6952164257363638
1.7100070372549776
1.7214563084876642
1.7300423681330663
1.7329777486819051
1.7329755299058163
1.7324254263986343
1.731366362046901
1.7287778117545367
1.7246622384849009
1.7187441426543768
1.7112557100119714
1.7022608097567398
1.69158619068895
1.6803382927627342
1.6692078172015337
1.656762999085168
1.642757679547898
1.6298736035389532
1.6207074936740191
1.6139929103878508
1.6010478434903876
1.5729546845583406
-2.9829281846368354
-1.8638250391618532
-1.153302811521988
-0.3970502229803943
0.16928860186359826
0.6066373313956545
0.9596748432773632
1.2210790281222448
1.3846837309112356
1.5108893483636558
1.5854163164823767
1.636987836581735
1.6572976876162238
1.6746708989997847
1.6876395470698198
1.6973785264848607
1.7040263747563265
1.7076397306920463
1.7095001230329419
1.7097365206254804
1.7085550743266837
1.7068954809791455
1.7040762949684807
1.7003947047974697
1.6962636587034907
1.6912857434322826
1.6866528394354094
1.6821924122595349
1.6787549942010593
1.6758739433551326
1.674129141945468
1.6735218766462479
1.6735516404537072
1.6752928255662844
1.6842912381616593
1.714391888226193
1.8258638163852787
1.6729079784834548
-2.4820336384439527
-1.01241650182506
0.039397797623994146
0.5768136542363613
0.9036667797443158
1.1080174691169733
1.262450938174294
1.3816673289264514
1.4742041373455568
1.5432481980982204
1.5905072857102995
1.623000363923697
1.6467267963409586
1.663494803946675
1.6755648881286096
1.6836907492216566
1.689316382730162
1.6930583914732802
1.6951177907174606
1.696697533155079
1.6972860395054137
1.6976419942742351
1.69721691585022
1.6964878985151488
1.6954863756509935
1.6943236098986685
1.6932240508148813
1.6925845199259222
1.6934242765930203
1.696078992403594
1.7024304201210683
1.7129715451085812
1.7256227551567076
1.7373265395575999
1.751932064503343
1.8125221171789472
1.7119698365275418
1.798594570570382
-0.8499532675491847
-0.9901153715914593
-0.869705921080219
0.38332881859305046
0.8965184056249553
1.1119476091857765
1.2448978832951263
1.3479520685127966
1.430808219261318
1.4980987879587935
1.5523953085756503
1.5943253199102174
1.625014237363207
1.6465486245302074
1.6608649843291772
1.6696198332123737
1.6747798616339342
1.677448949510876
1.6781910043307815
1.6784888782925622
1.6786845462138718
1.678449747831834
1.678837477789183
1.6795286713474527
1.6805075231446922
1.6812893814613301
1.682966490559055
1.684738438640354
1.687939763701034
1.6919638317905976
1.6984427868917318
1.7092394413421688
1.7274820763777972
1.7603876659096953
1.791075474868565
1.7953652506887956
1.8006080085939986
1.7287363702026626
1.732307584992921
1.634970965079768
)
;

boundaryField
{
    ".*"
    {
        type            zeroGradient;
    }
}


// ************************************************************************* //
