// -*- C++ -*-
// File generated by PyFoam - sorry for the ugliness

FoamFile
{
 version 2.0;
 format ascii;
 class volScalarField;
 location "1100";
 object T;
}

dimensions [ 0 0 0 1 0 0 0 ];

internalField nonuniform List<scalar> 459
(
  302.699
  302.419
  302.404
  302.399
  302.395
  302.39
  302.385
  302.378
  302.369
  302.358
  302.348
  302.34
  302.337
  302.339
  302.348
  302.489
  302.461
  302.45
  302.454
  302.46
  302.465
  302.471
  302.477
  302.483
  302.489
  302.494
  302.5
  302.505
  302.511
  302.516
  302.522
  302.528
  302.536
  302.561
  302.884
  302.46
  302.432
  302.432
  302.433
  302.432
  302.427
  302.418
  302.4
  302.377
  302.353
  302.334
  302.322
  302.319
  302.322
  302.323
  302.328
  302.492
  302.44
  302.431
  302.435
  302.442
  302.448
  302.452
  302.455
  302.458
  302.46
  302.463
  302.465
  302.468
  302.471
  302.474
  302.48
  302.488
  302.501
  302.542
  303.077
  302.514
  302.466
  302.474
  302.485
  302.493
  302.494
  302.483
  302.454
  302.412
  302.369
  302.335
  302.316
  302.31
  302.314
  302.32
  302.325
  302.414
  302.41
  302.418
  302.432
  302.446
  302.458
  302.458
  302.459
  302.46
  302.461
  302.462
  302.463
  302.464
  302.466
  302.467
  302.472
  302.478
  302.49
  302.535
  303.274
  302.581
  302.505
  302.518
  302.544
  302.568
  302.581
  302.567
  302.52
  302.452
  302.386
  302.336
  302.308
  302.302
  302.309
  302.32
  302.331
  302.347
  302.368
  302.395
  302.424
  302.45
  302.473
  302.491
  302.505
  302.518
  302.529
  302.538
  302.546
  302.553
  302.558
  302.562
  302.563
  302.533
  302.508
  302.499
  302.536
  303.465
  302.668
  302.554
  302.562
  302.6
  302.643
  302.674
  302.651
  302.578
  302.479
  302.392
  302.329
  302.297
  302.292
  302.305
  302.326
  302.348
  302.373
  302.402
  302.435
  302.468
  302.498
  302.524
  302.545
  302.563
  302.578
  302.591
  302.6
  302.607
  302.609
  302.608
  302.604
  302.595
  302.571
  302.538
  302.515
  302.533
  302.632
  302.676
  302.682
  303.638
  302.782
  302.64
  302.628
  302.668
  302.728
  302.749
  302.697
  302.597
  302.48
  302.377
  302.308
  302.277
  302.28
  302.305
  302.34
  302.377
  302.415
  302.453
  302.492
  302.528
  302.559
  302.585
  302.605
  302.622
  302.635
  302.645
  302.653
  302.656
  302.654
  302.648
  302.637
  302.623
  302.6
  302.567
  302.536
  302.535
  302.577
  302.597
  302.637
  303.801
  302.962
  302.826
  302.801
  302.818
  302.849
  302.805
  302.697
  302.556
  302.419
  302.314
  302.256
  302.244
  302.268
  302.316
  302.373
  302.428
  302.479
  302.524
  302.564
  302.598
  302.626
  302.648
  302.664
  302.677
  302.687
  302.694
  302.698
  302.698
  302.693
  302.682
  302.667
  302.649
  302.626
  302.596
  302.565
  302.552
  302.564
  302.578
  302.612
  304.034
  303.411
  303.263
  303.184
  303.112
  302.975
  302.785
  302.579
  302.394
  302.258
  302.185
  302.173
  302.208
  302.274
  302.357
  302.439
  302.509
  302.565
  302.608
  302.642
  302.668
  302.689
  302.705
  302.717
  302.725
  302.731
  302.734
  302.734
  302.731
  302.725
  302.715
  302.699
  302.681
  302.66
  302.638
  302.615
  302.609
  302.627
  302.653
  302.81
  304.369
  304.073
  303.777
  303.462
  303.073
  302.658
  302.317
  302.084
  301.965
  301.945
  302
  302.104
  302.221
  302.34
  302.459
  302.553
  302.614
  302.655
  302.686
  302.71
  302.728
  302.742
  302.752
  302.759
  302.764
  302.766
  302.766
  302.764
  302.761
  302.758
  302.756
  302.757
  302.759
  302.768
  302.786
  302.814
  302.854
  302.894
  302.922
  302.993
  293.337
  295.197
  297.208
  298.701
  299.781
  300.59
  301.203
  301.663
  302.005
  302.269
  302.425
  302.533
  302.612
  302.667
  302.704
  302.731
  302.751
  302.765
  302.776
  302.784
  302.789
  302.793
  302.795
  302.796
  302.797
  302.797
  302.798
  302.799
  302.801
  302.803
  302.808
  302.818
  302.834
  302.856
  302.883
  302.908
  302.929
  302.978
  294.525
  296.984
  299.193
  300.317
  301.029
  301.527
  301.885
  302.154
  302.358
  302.507
  302.606
  302.672
  302.718
  302.749
  302.771
  302.786
  302.797
  302.805
  302.81
  302.814
  302.816
  302.818
  302.819
  302.82
  302.821
  302.822
  302.823
  302.824
  302.826
  302.828
  302.832
  302.839
  302.85
  302.865
  302.882
  302.901
  302.926
  302.953
  298.304
  298.228
  298.223
  300.552
  301.476
  301.873
  302.117
  302.303
  302.448
  302.561
  302.648
  302.712
  302.757
  302.788
  302.809
  302.823
  302.833
  302.84
  302.844
  302.847
  302.849
  302.849
  302.849
  302.849
  302.849
  302.848
  302.848
  302.847
  302.847
  302.846
  302.846
  302.847
  302.848
  302.851
  302.856
  302.865
  302.876
  302.884
  302.945
  303.048
)
;

boundaryField
{
  floor
  {
    type wallHeatTransfer;
    Tinf uniform 305.2;
    alphaWall uniform 0.24;
    value nonuniform List<scalar> 29
(
  302.62
  302.976
  302.894
  302.85
  302.854
  302.868
  302.887
  302.912
  302.938
  302.964
  302.989
  303.014
  303.038
  303.06
  303.082
  303.104
  303.126
  303.15
  303.169
  303.222
  303.222
  303.102
  303.042
  303.01
  302.62
  302.976
  302.959
  302.714
  302.576
)
;
  }
  ceiling
  {
    type wallHeatTransfer;
    Tinf uniform 303.2;
    alphaWall uniform 0.24;
    value nonuniform List<scalar> 43
(
  298.625
  298.538
  298.523
  300.703
  301.577
  301.954
  302.185
  302.361
  302.5
  302.609
  302.693
  302.757
  302.802
  302.834
  302.856
  302.872
  302.883
  302.891
  302.896
  302.899
  302.901
  302.902
  302.902
  302.901
  302.9
  302.899
  302.897
  302.896
  302.894
  302.892
  302.89
  302.889
  302.888
  302.889
  302.891
  302.898
  302.907
  302.917
  302.973
  303.063
  304.316
  304.039
  295.04
)
;
  }
  sWall
  {
    type wallHeatTransfer;
    Tinf uniform 315.2;
    alphaWall uniform 0.36;
    value uniform 299.916;
  }
  nWall
  {
    type wallHeatTransfer;
    Tinf uniform 307.2;
    alphaWall uniform 0.36;
    value nonuniform List<scalar> 6
(
  303.484
  303.421
  303.332
  303.573
  303.538
  303.634
)
;
  }
  sideWalls
  {
    type empty;
  }
  glass1
  {
    type wallHeatTransfer;
    Tinf uniform 315.2;
    alphaWall uniform 4.3;
    value nonuniform List<scalar> 9
(
  311.117
  310.435
  310.011
  309.692
  309.429
  309.191
  309.024
  309.111
  309.364
)
;
  }
  glass2
  {
    type wallHeatTransfer;
    Tinf uniform 307.2;
    alphaWall uniform 4.3;
    value nonuniform List<scalar> 2
(
  305.491
  305.626
)
;
  }
  sun
  {
    type wallHeatTransfer;
    Tinf uniform 305.2;
    alphaWall uniform 0.24;
    value nonuniform List<scalar> 14
(
  302.952
  302.681
  302.663
  302.65
  302.637
  302.625
  302.614
  302.602
  302.589
  302.578
  302.571
  302.569
  302.576
  302.592
)
;
  }
  heatsource1
  {
    type fixedGradient;
    gradient uniform 0;
  }
  heatsource2
  {
    type fixedGradient;
    gradient uniform 0;
  }
  Table_master
  {
    type zeroGradient;
  }
  Table_slave
  {
    type zeroGradient;
  }
  inlet
  {
    type fixedValue;
    value uniform 290.15;
  }
  outlet
  {
    type zeroGradient;
  }
} 	// ************************************************************************* //

