// -*- C++ -*-
// File generated by PyFoam - sorry for the ugliness

FoamFile
{
 version 2.0;
 format ascii;
 class volScalarField;
 location "1300";
 object T;
}

dimensions [ 0 0 0 1 0 0 0 ];

internalField nonuniform List<scalar> 459
(
  302.703
  302.423
  302.407
  302.403
  302.398
  302.394
  302.388
  302.382
  302.373
  302.362
  302.352
  302.344
  302.34
  302.342
  302.351
  302.489
  302.462
  302.451
  302.455
  302.46
  302.466
  302.472
  302.477
  302.483
  302.488
  302.494
  302.499
  302.504
  302.509
  302.514
  302.52
  302.526
  302.533
  302.558
  302.887
  302.464
  302.435
  302.435
  302.437
  302.436
  302.431
  302.422
  302.405
  302.382
  302.358
  302.338
  302.326
  302.323
  302.325
  302.326
  302.329
  302.492
  302.441
  302.433
  302.437
  302.444
  302.45
  302.454
  302.456
  302.459
  302.461
  302.463
  302.465
  302.468
  302.47
  302.474
  302.479
  302.487
  302.499
  302.54
  303.081
  302.517
  302.47
  302.477
  302.489
  302.497
  302.498
  302.488
  302.459
  302.417
  302.375
  302.341
  302.32
  302.314
  302.318
  302.323
  302.327
  302.415
  302.411
  302.42
  302.435
  302.449
  302.46
  302.461
  302.461
  302.462
  302.463
  302.463
  302.464
  302.465
  302.466
  302.467
  302.471
  302.477
  302.488
  302.532
  303.277
  302.584
  302.509
  302.521
  302.547
  302.571
  302.585
  302.572
  302.526
  302.458
  302.392
  302.342
  302.313
  302.306
  302.313
  302.324
  302.334
  302.351
  302.371
  302.399
  302.427
  302.454
  302.477
  302.495
  302.509
  302.521
  302.532
  302.541
  302.548
  302.554
  302.559
  302.563
  302.564
  302.533
  302.508
  302.498
  302.533
  303.469
  302.671
  302.557
  302.565
  302.603
  302.646
  302.677
  302.656
  302.585
  302.486
  302.399
  302.336
  302.303
  302.297
  302.309
  302.329
  302.351
  302.376
  302.405
  302.438
  302.472
  302.502
  302.528
  302.548
  302.566
  302.581
  302.593
  302.601
  302.607
  302.609
  302.607
  302.603
  302.594
  302.571
  302.538
  302.513
  302.53
  302.626
  302.671
  302.678
  303.642
  302.785
  302.643
  302.631
  302.671
  302.73
  302.753
  302.703
  302.604
  302.488
  302.385
  302.314
  302.283
  302.284
  302.309
  302.343
  302.38
  302.418
  302.456
  302.495
  302.531
  302.562
  302.587
  302.607
  302.623
  302.635
  302.645
  302.651
  302.653
  302.651
  302.644
  302.634
  302.62
  302.597
  302.565
  302.534
  302.532
  302.573
  302.593
  302.633
  303.804
  302.965
  302.829
  302.804
  302.82
  302.853
  302.811
  302.704
  302.565
  302.428
  302.322
  302.262
  302.249
  302.272
  302.319
  302.375
  302.43
  302.48
  302.526
  302.566
  302.6
  302.627
  302.648
  302.664
  302.676
  302.685
  302.69
  302.693
  302.692
  302.686
  302.674
  302.66
  302.643
  302.621
  302.592
  302.561
  302.549
  302.561
  302.574
  302.608
  304.037
  303.414
  303.266
  303.186
  303.115
  302.981
  302.794
  302.59
  302.405
  302.268
  302.193
  302.179
  302.212
  302.276
  302.358
  302.439
  302.508
  302.564
  302.608
  302.641
  302.667
  302.687
  302.702
  302.713
  302.72
  302.724
  302.726
  302.724
  302.721
  302.714
  302.703
  302.687
  302.671
  302.651
  302.629
  302.607
  302.601
  302.621
  302.648
  302.8
  304.372
  304.076
  303.78
  303.466
  303.083
  302.673
  302.332
  302.098
  301.976
  301.954
  302.006
  302.106
  302.222
  302.34
  302.456
  302.55
  302.61
  302.652
  302.682
  302.706
  302.723
  302.736
  302.745
  302.75
  302.753
  302.754
  302.753
  302.751
  302.747
  302.744
  302.741
  302.741
  302.744
  302.753
  302.772
  302.802
  302.843
  302.884
  302.91
  302.973
  293.346
  295.226
  297.223
  298.707
  299.782
  300.589
  301.201
  301.66
  302.001
  302.264
  302.421
  302.529
  302.607
  302.662
  302.698
  302.724
  302.743
  302.757
  302.767
  302.773
  302.778
  302.78
  302.781
  302.782
  302.782
  302.782
  302.783
  302.784
  302.785
  302.788
  302.794
  302.805
  302.822
  302.847
  302.877
  302.905
  302.927
  302.949
  294.537
  296.994
  299.196
  300.315
  301.024
  301.521
  301.879
  302.148
  302.352
  302.501
  302.599
  302.666
  302.711
  302.741
  302.762
  302.776
  302.786
  302.793
  302.797
  302.8
  302.802
  302.804
  302.805
  302.805
  302.806
  302.807
  302.808
  302.809
  302.811
  302.813
  302.818
  302.826
  302.838
  302.855
  302.875
  302.898
  302.897
  302.929
  298.298
  298.222
  298.216
  300.542
  301.466
  301.864
  302.109
  302.295
  302.44
  302.553
  302.64
  302.703
  302.748
  302.778
  302.798
  302.812
  302.821
  302.827
  302.83
  302.833
  302.834
  302.834
  302.834
  302.834
  302.833
  302.833
  302.832
  302.832
  302.831
  302.831
  302.831
  302.832
  302.834
  302.837
  302.842
  302.855
  302.866
  302.874
  302.878
  302.918
)
;

boundaryField
{
  floor
  {
    type wallHeatTransfer;
    Tinf uniform 305.2;
    alphaWall uniform 0.24;
    value nonuniform List<scalar> 29
(
  302.622
  302.974
  302.892
  302.848
  302.852
  302.867
  302.885
  302.909
  302.934
  302.96
  302.985
  303.009
  303.032
  303.054
  303.075
  303.096
  303.118
  303.142
  303.161
  303.214
  303.214
  303.096
  303.037
  303.006
  302.622
  302.974
  302.957
  302.712
  302.579
)
;
  }
  ceiling
  {
    type wallHeatTransfer;
    Tinf uniform 303.2;
    alphaWall uniform 0.24;
    value nonuniform List<scalar> 43
(
  298.618
  298.532
  298.517
  300.693
  301.569
  301.946
  302.177
  302.354
  302.492
  302.601
  302.686
  302.749
  302.794
  302.825
  302.847
  302.862
  302.872
  302.88
  302.884
  302.887
  302.888
  302.889
  302.888
  302.887
  302.886
  302.884
  302.883
  302.881
  302.879
  302.877
  302.876
  302.874
  302.874
  302.875
  302.878
  302.888
  302.897
  302.905
  302.91
  302.948
  304.319
  304.042
  295.05
)
;
  }
  sWall
  {
    type wallHeatTransfer;
    Tinf uniform 315.2;
    alphaWall uniform 0.36;
    value uniform 299.909;
  }
  nWall
  {
    type wallHeatTransfer;
    Tinf uniform 307.2;
    alphaWall uniform 0.36;
    value nonuniform List<scalar> 6
(
  303.481
  303.418
  303.323
  303.548
  303.526
  303.568
)
;
  }
  sideWalls
  {
    type empty;
  }
  glass1
  {
    type wallHeatTransfer;
    Tinf uniform 315.2;
    alphaWall uniform 4.3;
    value nonuniform List<scalar> 9
(
  311.122
  310.438
  310.014
  309.695
  309.431
  309.193
  309.026
  309.113
  309.365
)
;
  }
  glass2
  {
    type wallHeatTransfer;
    Tinf uniform 307.2;
    alphaWall uniform 4.3;
    value nonuniform List<scalar> 2
(
  305.46
  305.599
)
;
  }
  sun
  {
    type wallHeatTransfer;
    Tinf uniform 305.2;
    alphaWall uniform 0.24;
    value nonuniform List<scalar> 14
(
  302.955
  302.685
  302.667
  302.653
  302.641
  302.629
  302.617
  302.605
  302.593
  302.582
  302.575
  302.573
  302.579
  302.595
)
;
  }
  heatsource1
  {
    type fixedGradient;
    gradient uniform 0;
  }
  heatsource2
  {
    type fixedGradient;
    gradient uniform 0;
  }
  Table_master
  {
    type zeroGradient;
  }
  Table_slave
  {
    type zeroGradient;
  }
  inlet
  {
    type fixedValue;
    value uniform 290.15;
  }
  outlet
  {
    type zeroGradient;
  }
} 	// ************************************************************************* //

