// -*- C++ -*-
// File generated by PyFoam - sorry for the ugliness

FoamFile
{
 version 2.0;
 format ascii;
 class volVectorField;
 location "1300";
 object U;
}

dimensions [ 0 1 -1 0 0 0 0 ];

internalField nonuniform List<vector> 459
(
  (0.0329375 0.0882779 0)
  (-0.171764 0.0265919 0)
  (-0.197146 0.017917 0)
  (-0.22793 0.0119045 0)
  (-0.249575 0.00534097 0)
  (-0.261122 -0.00151857 0)
  (-0.261119 -0.00868308 0)
  (-0.248926 -0.0161115 0)
  (-0.225497 -0.0230533 0)
  (-0.192904 -0.0284105 0)
  (-0.154599 -0.0313639 0)
  (-0.114356 -0.0316321 0)
  (-0.0757419 -0.0295608 0)
  (-0.0437883 -0.0265613 0)
  (-0.0334755 -0.0243847 0)
  (-0.00326563 0.00869258 0)
  (-0.0278837 -0.0196258 0)
  (-0.00209742 -0.0296869 0)
  (0.0223309 -0.022187 0)
  (0.0398904 -0.0150165 0)
  (0.0532191 -0.00964262 0)
  (0.0612515 -0.00574551 0)
  (0.0652903 -0.00370215 0)
  (0.0670986 -0.00282667 0)
  (0.0680193 -0.00240503 0)
  (0.0685956 -0.00212784 0)
  (0.0689016 -0.00189896 0)
  (0.0688666 -0.00162508 0)
  (0.0682703 -0.00112407 0)
  (0.0665144 4.77943e-06 0)
  (0.0623284 0.00232142 0)
  (0.0543321 0.00477188 0)
  (0.0468186 0.00682989 0)
  (-0.0136242 0.0230636 0)
  (0.209022 0.180316 0)
  (-0.158645 0.0699051 0)
  (-0.157493 0.0530879 0)
  (-0.188931 0.0404204 0)
  (-0.210139 0.0262289 0)
  (-0.221762 0.0105747 0)
  (-0.22229 -0.00663284 0)
  (-0.211078 -0.024481 0)
  (-0.18965 -0.0405101 0)
  (-0.160405 -0.0522892 0)
  (-0.126822 -0.0582949 0)
  (-0.0923513 -0.0582736 0)
  (-0.0601253 -0.052826 0)
  (-0.03355 -0.0434997 0)
  (-0.0168711 -0.0321214 0)
  (-0.00320384 -0.0141356 0)
  (-0.00396117 0.0173042 0)
  (0.071476 0.0365864 0)
  (0.031703 -0.021008 0)
  (0.0396019 -0.0342971 0)
  (0.051753 -0.0296218 0)
  (0.0613212 -0.0207093 0)
  (0.0678676 -0.0123988 0)
  (0.0705793 -0.00516311 0)
  (0.0710094 -0.00114163 0)
  (0.0709066 0.000540255 0)
  (0.0709899 0.00129119 0)
  (0.0711739 0.00174783 0)
  (0.071305 0.00213244 0)
  (0.0713337 0.00262938 0)
  (0.0712034 0.00360408 0)
  (0.0703455 0.00602309 0)
  (0.066161 0.0127207 0)
  (0.0556614 0.0183422 0)
  (0.0505902 0.0221784 0)
  (-0.054301 0.0496493 0)
  (0.370014 0.269263 0)
  (-0.173489 0.110642 0)
  (-0.117662 0.0853351 0)
  (-0.147504 0.06301 0)
  (-0.165964 0.0397735 0)
  (-0.176198 0.0144926 0)
  (-0.175673 -0.0132391 0)
  (-0.163604 -0.0414614 0)
  (-0.142681 -0.0658398 0)
  (-0.115924 -0.0827203 0)
  (-0.0868272 -0.090304 0)
  (-0.0580783 -0.088919 0)
  (-0.0317064 -0.079659 0)
  (-0.00980645 -0.0643975 0)
  (0.00661074 -0.0435543 0)
  (0.0178555 -0.0179525 0)
  (0.0235003 0.0191801 0)
  (0.120282 -0.0375745 0)
  (0.0797603 -0.0451832 0)
  (0.0741662 -0.0430648 0)
  (0.0762784 -0.0354734 0)
  (0.0779249 -0.0258373 0)
  (0.0790482 -0.0174994 0)
  (0.0774225 -0.0139005 0)
  (0.0727661 -0.00971282 0)
  (0.0694989 -0.0074313 0)
  (0.0680478 -0.00612051 0)
  (0.067439 -0.00527821 0)
  (0.0671483 -0.00468585 0)
  (0.0671973 -0.00413045 0)
  (0.0680913 -0.0032209 0)
  (0.0711218 0.000129055 0)
  (0.0688034 0.0183168 0)
  (0.0541511 0.0310356 0)
  (0.0570021 0.0395184 0)
  (-0.0906684 0.0769382 0)
  (0.514711 0.340534 0)
  (-0.206268 0.146533 0)
  (-0.0764228 0.11237 0)
  (-0.1036 0.0817223 0)
  (-0.116252 0.0516188 0)
  (-0.122136 0.0181056 0)
  (-0.116814 -0.0200619 0)
  (-0.101612 -0.0585798 0)
  (-0.0808596 -0.0899545 0)
  (-0.0577336 -0.110134 0)
  (-0.0351472 -0.117858 0)
  (-0.0142786 -0.114684 0)
  (0.00456101 -0.10187 0)
  (0.0201671 -0.0823915 0)
  (0.0337746 -0.0583095 0)
  (0.0487265 -0.0309846 0)
  (0.0714744 -0.000787152 0)
  (0.104277 0.0126914 0)
  (0.11031 -0.0295297 0)
  (0.0947027 -0.0392615 0)
  (0.0852159 -0.0367486 0)
  (0.0805059 -0.0310537 0)
  (0.0773099 -0.0235459 0)
  (0.0756455 -0.0144132 0)
  (0.0776507 -0.00853281 0)
  (0.0827403 -0.00650522 0)
  (0.0869013 -0.0053274 0)
  (0.089577 -0.00440759 0)
  (0.0910254 -0.0033073 0)
  (0.0906047 -0.0017524 0)
  (0.0873016 0.000455181 0)
  (0.0798695 0.00362057 0)
  (0.0652772 0.00835212 0)
  (0.0530724 0.0298721 0)
  (0.0405797 0.0475129 0)
  (0.0603943 0.0609542 0)
  (-0.132653 0.100395 0)
  (0.638807 0.395572 0)
  (-0.246708 0.175682 0)
  (-0.0366821 0.127294 0)
  (-0.0577986 0.0917384 0)
  (-0.0618423 0.0574973 0)
  (-0.0592923 0.017379 0)
  (-0.0422885 -0.0309592 0)
  (-0.0228892 -0.0769289 0)
  (-0.00414977 -0.111088 0)
  (0.0123334 -0.130763 0)
  (0.0250047 -0.13578 0)
  (0.0349722 -0.129724 0)
  (0.0426603 -0.11496 0)
  (0.0489587 -0.0941655 0)
  (0.055103 -0.0699827 0)
  (0.0630282 -0.0455509 0)
  (0.0754659 -0.0268904 0)
  (0.0864182 -0.0258059 0)
  (0.0874757 -0.0344936 0)
  (0.0802989 -0.0348409 0)
  (0.0715147 -0.0307874 0)
  (0.0647003 -0.0256839 0)
  (0.0598586 -0.0199475 0)
  (0.0572804 -0.0136333 0)
  (0.0575367 -0.00766123 0)
  (0.0602101 -0.00478856 0)
  (0.0631202 -0.00361076 0)
  (0.0658018 -0.00253415 0)
  (0.0681062 -0.000525638 0)
  (0.0695577 0.0028779 0)
  (0.0689607 0.00771968 0)
  (0.0657988 0.0141638 0)
  (0.0593666 0.0229601 0)
  (0.0517475 0.0394378 0)
  (0.0403684 0.0592121 0)
  (0.0680522 0.0808173 0)
  (-0.0336171 0.11302 0)
  (0.0473195 0.0277166 0)
  (-0.0689358 -0.0378775 0)
  (-0.285501 -0.0613665 0)
  (0.728139 0.441181 0)
  (-0.285905 0.194807 0)
  (-0.00685104 0.121474 0)
  (-0.00946107 0.0895251 0)
  (-0.00041818 0.0538549 0)
  (0.0202868 0.00467179 0)
  (0.0500042 -0.0508681 0)
  (0.0697788 -0.0948654 0)
  (0.0820681 -0.124306 0)
  (0.0876042 -0.139244 0)
  (0.0877999 -0.141096 0)
  (0.0844259 -0.13245 0)
  (0.0789955 -0.116106 0)
  (0.0731033 -0.0949806 0)
  (0.068202 -0.0718164 0)
  (0.0655706 -0.0496332 0)
  (0.0659396 -0.0325196 0)
  (0.0661597 -0.0255334 0)
  (0.0622435 -0.025414 0)
  (0.0543943 -0.0250962 0)
  (0.0457455 -0.0227415 0)
  (0.0387379 -0.0194686 0)
  (0.0338955 -0.0158276 0)
  (0.0314771 -0.0119837 0)
  (0.0315642 -0.00872722 0)
  (0.0336551 -0.00745338 0)
  (0.0366403 -0.0071141 0)
  (0.0400657 -0.00636283 0)
  (0.0436962 -0.00414738 0)
  (0.0473629 0.000358537 0)
  (0.0501125 0.00714095 0)
  (0.0512661 0.0158519 0)
  (0.0511474 0.0268539 0)
  (0.0513079 0.0421388 0)
  (0.0490478 0.0613624 0)
  (0.0761682 0.0862691 0)
  (0.0490001 0.105697 0)
  (0.0972811 0.0701611 0)
  (0.121997 0.0454525 0)
  (-0.13831 -0.0100898 0)
  (0.785087 0.48288 0)
  (-0.303732 0.179179 0)
  (0.024178 0.0651864 0)
  (0.0580399 0.0547939 0)
  (0.0844585 0.0286063 0)
  (0.128833 -0.0256493 0)
  (0.157483 -0.0738386 0)
  (0.171237 -0.107992 0)
  (0.172153 -0.128076 0)
  (0.16294 -0.135488 0)
  (0.146781 -0.132094 0)
  (0.126783 -0.120336 0)
  (0.105639 -0.102978 0)
  (0.0855888 -0.0826716 0)
  (0.0682246 -0.0616144 0)
  (0.0545225 -0.0422201 0)
  (0.0447027 -0.0274282 0)
  (0.0371204 -0.0196629 0)
  (0.02947 -0.0173464 0)
  (0.0212494 -0.0166285 0)
  (0.0136122 -0.015461 0)
  (0.0076553 -0.0139554 0)
  (0.00370388 -0.0123907 0)
  (0.00188598 -0.0108982 0)
  (0.00214405 -0.00995292 0)
  (0.00397092 -0.0100617 0)
  (0.00666042 -0.0105223 0)
  (0.00994163 -0.0103744 0)
  (0.0138426 -0.00869182 0)
  (0.0184911 -0.00441674 0)
  (0.0251364 0.00332437 0)
  (0.0307011 0.0128792 0)
  (0.0361844 0.0239457 0)
  (0.0434632 0.037463 0)
  (0.050832 0.0531319 0)
  (0.0758979 0.0733978 0)
  (0.0882782 0.0809914 0)
  (0.124946 0.0528197 0)
  (0.167494 0.0430704 0)
  (-0.0324409 0.096627 0)
  (0.893015 0.482196 0)
  (-0.0558458 0.157484 0)
  (0.119695 -0.0238432 0)
  (0.208602 -0.0601282 0)
  (0.254881 -0.0737583 0)
  (0.279628 -0.0903347 0)
  (0.288189 -0.105593 0)
  (0.280072 -0.115182 0)
  (0.257498 -0.117988 0)
  (0.224739 -0.114235 0)
  (0.186517 -0.104781 0)
  (0.146931 -0.0908714 0)
  (0.109265 -0.074344 0)
  (0.0758208 -0.0569855 0)
  (0.0478063 -0.0400084 0)
  (0.025977 -0.0251365 0)
  (0.0104165 -0.0147052 0)
  (-0.000401824 -0.00972272 0)
  (-0.00850157 -0.00873142 0)
  (-0.0152904 -0.00903818 0)
  (-0.0209473 -0.00933185 0)
  (-0.0252585 -0.00952739 0)
  (-0.028195 -0.00974472 0)
  (-0.0297824 -0.0100999 0)
  (-0.0301712 -0.0107879 0)
  (-0.0297554 -0.011874 0)
  (-0.0289396 -0.0129956 0)
  (-0.0278286 -0.013662 0)
  (-0.0262396 -0.0133642 0)
  (-0.0237264 -0.0114958 0)
  (-0.0191356 -0.00726501 0)
  (-0.00879083 -3.03735e-05 0)
  (-0.000571802 0.00861985 0)
  (0.0105954 0.0172202 0)
  (0.0221725 0.0249675 0)
  (0.0435136 0.0338041 0)
  (0.06231 0.0261477 0)
  (0.0815414 -0.00537762 0)
  (0.143168 0.0445003 0)
  (-0.453292 0.221282 0)
  (1.04527 0.426711 0)
  (0.495096 0.278624 0)
  (0.514337 0.172613 0)
  (0.549489 0.0941504 0)
  (0.529366 0.040074 0)
  (0.481538 -0.00257965 0)
  (0.426264 -0.0336256 0)
  (0.36587 -0.0524024 0)
  (0.30121 -0.0602787 0)
  (0.23568 -0.0598079 0)
  (0.173379 -0.0536981 0)
  (0.117195 -0.043933 0)
  (0.0693686 -0.0326776 0)
  (0.0303645 -0.0215999 0)
  (-0.000562909 -0.011547 0)
  (-0.0216312 -0.00477322 0)
  (-0.0336806 -0.00193152 0)
  (-0.0410752 -0.00152256 0)
  (-0.0463648 -0.0024491 0)
  (-0.0508995 -0.0037912 0)
  (-0.0548755 -0.00511428 0)
  (-0.0582837 -0.00638697 0)
  (-0.0611598 -0.00763654 0)
  (-0.0636127 -0.0088923 0)
  (-0.0658547 -0.0101772 0)
  (-0.0682201 -0.0114113 0)
  (-0.0710551 -0.0123165 0)
  (-0.0746513 -0.0124859 0)
  (-0.0793325 -0.0114024 0)
  (-0.0855948 -0.00839825 0)
  (-0.094149 -0.00267428 0)
  (-0.104572 0.0062787 0)
  (-0.115492 0.0181089 0)
  (-0.132702 0.033166 0)
  (-0.159868 0.0512645 0)
  (-0.199406 0.0703545 0)
  (-0.255308 0.0851329 0)
  (-0.318463 0.0926439 0)
  (-0.390085 0.0936015 0)
  (-0.65882 0.0885042 0)
  (-0.179388 -0.0211076 0)
  (0.0999673 -0.036596 0)
  (0.176978 -0.0556495 0)
  (0.164009 -0.0479075 0)
  (0.144687 -0.0346492 0)
  (0.120523 -0.0226583 0)
  (0.0885967 -0.0124704 0)
  (0.0528151 -0.00455048 0)
  (0.0180228 0.000860301 0)
  (-0.014813 0.00441216 0)
  (-0.0383954 0.00561107 0)
  (-0.0556167 0.00561895 0)
  (-0.0666588 0.00458597 0)
  (-0.0724915 0.00246807 0)
  (-0.075798 -5.1241e-05 0)
  (-0.0781399 -0.002638 0)
  (-0.0803339 -0.00524787 0)
  (-0.0828108 -0.0076496 0)
  (-0.0857028 -0.00956573 0)
  (-0.0887926 -0.0110074 0)
  (-0.0919976 -0.0120542 0)
  (-0.0954305 -0.012752 0)
  (-0.0992538 -0.013123 0)
  (-0.10363 -0.0130882 0)
  (-0.108643 -0.0124087 0)
  (-0.114234 -0.010696 0)
  (-0.120158 -0.00745409 0)
  (-0.125954 -0.00214004 0)
  (-0.130897 0.00558207 0)
  (-0.134639 0.0161077 0)
  (-0.137626 0.0304445 0)
  (-0.140421 0.0490677 0)
  (-0.144127 0.0709519 0)
  (-0.149366 0.0915082 0)
  (-0.152661 0.0992921 0)
  (-0.134995 0.0722544 0)
  (-0.0829224 -0.0312674 0)
  (-0.288946 -0.224523 0)
  (0.0373319 0.197382 0)
  (0.0135205 0.0631496 0)
  (-0.0320655 0.0113541 0)
  (-0.055919 0.0106589 0)
  (-0.0743307 0.0167821 0)
  (-0.0878846 0.021371 0)
  (-0.0970186 0.0251388 0)
  (-0.103838 0.0282516 0)
  (-0.108734 0.030147 0)
  (-0.111981 0.0305739 0)
  (-0.113364 0.0300267 0)
  (-0.113409 0.0297236 0)
  (-0.112347 0.0298352 0)
  (-0.110767 0.0304087 0)
  (-0.109295 0.0316346 0)
  (-0.108207 0.0333613 0)
  (-0.107645 0.0351148 0)
  (-0.107651 0.0363407 0)
  (-0.108142 0.0364865 0)
  (-0.10913 0.0354336 0)
  (-0.110564 0.0339188 0)
  (-0.112418 0.0321286 0)
  (-0.114655 0.0301645 0)
  (-0.117217 0.0281205 0)
  (-0.119994 0.0261047 0)
  (-0.1228 0.0242328 0)
  (-0.125337 0.022599 0)
  (-0.127052 0.0214802 0)
  (-0.127055 0.0222496 0)
  (-0.124049 0.0261609 0)
  (-0.116425 0.0343705 0)
  (-0.10301 0.0479804 0)
  (-0.0841173 0.0667945 0)
  (-0.0610153 0.085923 0)
  (-0.0367105 0.0969552 0)
  (0.006417 0.0796857 0)
  (0.144694 0.00354749 0)
  (-0.208005 -0.137335 0)
  (-0.0907068 -0.346163 0)
  (-0.446341 -0.138517 0)
  (-0.33334 0.0439164 0)
  (-0.292201 -0.0440365 0)
  (-0.251577 -0.0502518 0)
  (-0.240458 -0.0428281 0)
  (-0.232554 -0.0358369 0)
  (-0.223339 -0.0314497 0)
  (-0.211801 -0.0292601 0)
  (-0.198231 -0.0293754 0)
  (-0.183618 -0.0323212 0)
  (-0.16937 -0.0380994 0)
  (-0.156714 -0.0459378 0)
  (-0.146265 -0.0545583 0)
  (-0.1381 -0.0634063 0)
  (-0.13205 -0.0722079 0)
  (-0.127717 -0.0805672 0)
  (-0.12464 -0.0880416 0)
  (-0.122476 -0.0941703 0)
  (-0.121045 -0.098501 0)
  (-0.120315 -0.100729 0)
  (-0.120299 -0.100783 0)
  (-0.120953 -0.0994559 0)
  (-0.122106 -0.0969834 0)
  (-0.123589 -0.0935368 0)
  (-0.125214 -0.0892 0)
  (-0.126729 -0.0839585 0)
  (-0.127785 -0.077681 0)
  (-0.12793 -0.0700925 0)
  (-0.126554 -0.0610182 0)
  (-0.122521 -0.0509841 0)
  (-0.113685 -0.039798 0)
  (-0.0971109 -0.0269193 0)
  (-0.0706683 -0.0113637 0)
  (-0.0356719 0.00761512 0)
  (0.0230879 0.0320194 0)
  (0.073722 0.0330441 0)
  (0.12224 0.011539 0)
  (0.176226 -0.0290514 0)
  (-0.179743 -0.0970134 0)
)
;

boundaryField
{
  floor
  {
    type noSlip;
  }
  ceiling
  {
    type noSlip;
  }
  sWall
  {
    type noSlip;
  }
  nWall
  {
    type noSlip;
  }
  sideWalls
  {
    type empty;
  }
  glass1
  {
    type noSlip;
  }
  glass2
  {
    type noSlip;
  }
  sun
  {
    type noSlip;
  }
  heatsource1
  {
    type noSlip;
  }
  heatsource2
  {
    type noSlip;
  }
  Table_master
  {
    type noSlip;
  }
  Table_slave
  {
    type noSlip;
  }
  inlet
  {
    type fixedValue;
    value uniform (0.277164 -0.114805 0);
  }
  outlet
  {
    type zeroGradient;
  }
} 	// ************************************************************************* //

