/*--------------------------------*- C++ -*----------------------------------*\
  =========                 |
  \\      /  F ield         | OpenFOAM: The Open Source CFD Toolbox
   \\    /   O peration     | Website:  https://openfoam.org
    \\  /    A nd           | Version:  6
     \\/     M anipulation  |
\*---------------------------------------------------------------------------*/
FoamFile
{
    version     2.0;
    format      ascii;
    class       volScalarField;
    location    "900";
    object      nut;
}
// * * * * * * * * * * * * * * * * * * * * * * * * * * * * * * * * * * * * * //

dimensions      [0 2 -1 0 0 0 0];

internalField   nonuniform List<scalar> 
459
(
0.00105684
0.0011504
0.0011673
0.00122275
0.00127398
0.00132146
0.00136716
0.0014137
0.00145195
0.0014749
0.00147719
0.00145449
0.00140606
0.00133813
0.00126302
0.000471731
0.000579789
0.000633134
0.000612668
0.000582539
0.000549802
0.000515287
0.000482919
0.000453836
0.000427967
0.000404953
0.000384442
0.000366107
0.000349451
0.000333916
0.000318736
0.000302758
0.000294248
0.0002716
0.00146014
0.00346276
0.00328255
0.00382626
0.00434302
0.00486674
0.00535321
0.00573257
0.00606004
0.00633743
0.00652329
0.00656064
0.00636027
0.00572658
0.00409253
0.00128506
0.000830451
0.000530208
0.00100088
0.00131203
0.00150992
0.00159077
0.00156714
0.00132547
0.00116889
0.00105123
0.000957925
0.00088164
0.000816984
0.000758662
0.000704007
0.000651517
0.000606037
0.000560995
0.000674134
0.000374133
0.0017994
0.00475034
0.0040281
0.00519006
0.00575607
0.00617455
0.00649688
0.00674562
0.00698988
0.00724793
0.00749319
0.00767936
0.00774313
0.00761028
0.00711255
0.00571205
0.00124652
0.00108708
0.00145011
0.00173293
0.00195079
0.00207378
0.00199287
0.000727466
0.000646828
0.000581943
0.00052937
0.000486322
0.000450684
0.000420926
0.000396038
0.000375506
0.000400329
0.000450695
0.000759988
0.000442844
0.00212879
0.00618344
0.00402261
0.00553192
0.00612925
0.00634802
0.0064518
0.00654631
0.00670763
0.00694734
0.00723865
0.00753444
0.00776524
0.00787928
0.00779985
0.00730373
0.00562844
0.00145861
0.00182749
0.00227848
0.00261887
0.00282786
0.0029236
0.00272022
0.000809736
0.000741753
0.000694656
0.000659813
0.000630266
0.000601927
0.000574705
0.000545838
0.00051168
0.000479494
0.000480117
0.000901882
0.000493795
0.00246604
0.00803927
0.00451818
0.00526788
0.00611547
0.00628247
0.00624364
0.00619681
0.00632981
0.00656803
0.00689191
0.0072509
0.00754877
0.0077134
0.0076883
0.00741969
0.00676342
0.00546999
0.00491854
0.00460651
0.00437858
0.00420669
0.00407906
0.00391795
0.00338523
0.00314731
0.00301689
0.00291222
0.00279044
0.00260367
0.00232659
0.00198006
0.00159039
0.00118837
0.000867349
0.0008795
0.000637094
0.000630547
0.000752826
0.000839652
0.00282264
0.0100471
0.00643907
0.00522805
0.00576119
0.00612761
0.00610402
0.00607725
0.0062039
0.00642349
0.0067444
0.00712355
0.00746009
0.00764067
0.00758877
0.00729681
0.0068241
0.00626496
0.00583089
0.00547152
0.00515351
0.00489596
0.00469639
0.00451766
0.00429637
0.00411251
0.00395044
0.00379068
0.00362258
0.00343725
0.00317851
0.0028286
0.00238769
0.00187966
0.00141196
0.00100958
0.000827268
0.000751681
0.00110715
0.000876244
0.00314712
0.0114649
0.00921083
0.00698717
0.0064691
0.00650313
0.00642944
0.00632336
0.00632038
0.0064862
0.00681767
0.00723447
0.00760072
0.00777359
0.00766482
0.00728579
0.00676538
0.00628763
0.00593782
0.00563083
0.00531114
0.004988
0.00467534
0.00439994
0.00417337
0.00399611
0.00384101
0.0036936
0.00355163
0.00341927
0.00329594
0.00307142
0.00271929
0.00227334
0.0018485
0.0014319
0.00118824
0.00112828
0.00116235
0.000973188
0.00320836
0.0102421
0.00912872
0.00849793
0.0079938
0.00742701
0.00683954
0.00647183
0.00642035
0.00666744
0.0071142
0.00761039
0.00798233
0.00807753
0.00782848
0.00728587
0.00664296
0.00613901
0.00579372
0.00537495
0.00489203
0.00442588
0.0040464
0.00377686
0.00359312
0.00345782
0.00334526
0.00324897
0.00317319
0.00312674
0.00311861
0.00312039
0.00292159
0.00260818
0.00234204
0.00222265
0.00234356
0.00276995
0.00366484
0.00151195
0.00312127
0.00369953
0.00413187
0.00427896
0.00439567
0.00457797
0.00492594
0.00550445
0.00626596
0.00709092
0.00783791
0.00837747
0.00858962
0.00839167
0.00781841
0.00702773
0.00631277
0.00571641
0.00514047
0.00451724
0.00394565
0.00351634
0.00323069
0.00304407
0.002912
0.00280547
0.00270999
0.00261996
0.00253268
0.00244583
0.00235779
0.00226966
0.0021984
0.00215339
0.00215643
0.00219933
0.00221973
0.00215687
0.00201709
0.00140853
0.00158816
0.00356869
0.00532114
0.00667413
0.00782585
0.00871493
0.00929157
0.00955548
0.00954852
0.00931176
0.00881647
0.0080892
0.00715909
0.0062575
0.0054831
0.00474629
0.00404074
0.00345077
0.00303109
0.0027625
0.00258812
0.00246577
0.00237238
0.00229665
0.0022336
0.00218166
0.00214151
0.0021159
0.00210965
0.00212751
0.00215969
0.00220749
0.00226901
0.00232754
0.00235746
0.00235167
0.00209973
0.00116309
0.00217179
0.00578637
0.00823975
0.00878899
0.00916944
0.00933942
0.00915034
0.00867654
0.00801266
0.0072548
0.00647981
0.00576816
0.00509728
0.00446195
0.00383818
0.00327106
0.00282857
0.00251274
0.00228536
0.00212852
0.00201889
0.00194319
0.00189571
0.00187402
0.00187616
0.00189923
0.00193857
0.00198707
0.00205198
0.0021319
0.00222483
0.002327
0.00242842
0.00251556
0.00258937
0.00263957
0.00183116
0.00119894
0.00192814
0.00204508
0.00212914
0.00228779
0.00221264
0.00210826
0.0020206
0.00191073
0.00177566
0.00162739
0.00146846
0.0013045
0.00114319
0.000993972
0.000869226
0.000775268
0.00071017
0.00066852
0.000644491
0.000633317
0.000631749
0.00063582
0.000644512
0.000657302
0.000673937
0.000694316
0.000718481
0.000746672
0.000779462
0.000818014
0.000861997
0.000911652
0.000967316
0.00102944
0.00109807
0.00117636
0.00120102
0.00109274
0.00102427
0.00117065
)
;

boundaryField
{
    floor
    {
        type            nutkWallFunction;
        Cmu             0.09;
        kappa           0.41;
        E               9.8;
        value           nonuniform List<scalar> 
29
(
0.000151235
5.60877e-05
6.98149e-05
7.64719e-05
7.39256e-05
7.01586e-05
6.60385e-05
6.1662e-05
5.75247e-05
5.37777e-05
5.04194e-05
4.74101e-05
4.47096e-05
4.22801e-05
4.00593e-05
3.79757e-05
3.59273e-05
3.37575e-05
3.25958e-05
2.94818e-05
2.94817e-05
4.33468e-05
5.23559e-05
5.89215e-05
0.000151235
5.60876e-05
6.35614e-05
0.00013091
0.000173456
)
;
    }
    ceiling
    {
        type            nutkWallFunction;
        Cmu             0.09;
        kappa           0.41;
        E               9.8;
        value           nonuniform List<scalar> 
43
(
0.000225368
0.000238096
0.000247199
0.000264409
0.000256379
0.000245126
0.000235621
0.000223637
0.000208797
0.000192364
0.000174565
0.000155977
0.000137431
0.000120009
0.000105212
9.39044e-05
8.59752e-05
8.08568e-05
7.78865e-05
7.65009e-05
7.6306e-05
7.68111e-05
7.78886e-05
7.94711e-05
8.15238e-05
8.40305e-05
8.69915e-05
9.04308e-05
9.44122e-05
9.90679e-05
0.000104349
0.000110273
0.000116869
0.00012418
0.000132198
0.000141275
0.00014412
0.000131577
0.000123574
0.000140618
0.000352731
0.000412351
0.000251623
)
;
    }
    sWall
    {
        type            nutkWallFunction;
        Cmu             0.09;
        kappa           0.41;
        E               9.8;
        value           uniform 0.000225432;
    }
    nWall
    {
        type            nutkWallFunction;
        Cmu             0.09;
        kappa           0.41;
        E               9.8;
        value           nonuniform List<scalar> 6(0.000101671 0.000106054 0.000117566 0.000139753 0.000143893 0.000140628);
    }
    sideWalls
    {
        type            empty;
    }
    glass1
    {
        type            nutkWallFunction;
        Cmu             0.09;
        kappa           0.41;
        E               9.8;
        value           nonuniform List<scalar> 9(0.000127484 0.000173862 0.00021175 0.000247792 0.000284078 0.000321879 0.000355845 0.000362225 0.000353182);
    }
    glass2
    {
        type            nutkWallFunction;
        Cmu             0.09;
        kappa           0.41;
        E               9.8;
        value           nonuniform List<scalar> 2(0.000179556 0.000167888);
    }
    sun
    {
        type            nutkWallFunction;
        Cmu             0.09;
        kappa           0.41;
        E               9.8;
        value           nonuniform List<scalar> 
14
(
0.000127385
0.000138266
0.00014022
0.000146613
0.000152489
0.000157912
0.000163112
0.000168387
0.000172708
0.000175295
0.000175552
0.000172995
0.000167522
0.000159811
)
;
    }
    heatsource1
    {
        type            nutkWallFunction;
        Cmu             0.09;
        kappa           0.41;
        E               9.8;
        value           nonuniform List<scalar> 3(7.61573e-05 9.11794e-05 0.000101669);
    }
    heatsource2
    {
        type            nutkWallFunction;
        Cmu             0.09;
        kappa           0.41;
        E               9.8;
        value           nonuniform List<scalar> 4(0.000153751 0.000100561 0.000100561 0.000149337);
    }
    Table_master
    {
        type            nutkWallFunction;
        Cmu             0.09;
        kappa           0.41;
        E               9.8;
        value           nonuniform List<scalar> 9(8.80836e-05 7.81715e-05 7.00879e-05 6.34577e-05 5.79685e-05 5.33785e-05 4.95108e-05 4.62497e-05 4.35397e-05);
    }
    Table_slave
    {
        type            nutkWallFunction;
        Cmu             0.09;
        kappa           0.41;
        E               9.8;
        value           nonuniform List<scalar> 9(9.80626e-05 8.98261e-05 8.4068e-05 7.97784e-05 7.61195e-05 7.25905e-05 6.91814e-05 6.55448e-05 6.12107e-05);
    }
    inlet
    {
        type            calculated;
        value           uniform 0.000100623;
    }
    outlet
    {
        type            calculated;
        value           nonuniform List<scalar> 2(0.00192814 0.00204508);
    }
}


// ************************************************************************* //
