/*--------------------------------*- C++ -*----------------------------------*=========                 |
  \      /  F ield         | OpenFOAM: The Open Source CFD Toolbox
   \    /   O peration     | Website:  https://openfoam.org
    \  /    A nd           | Version:  6
     \/     M anipulation  |
\*---------------------------------------------------------------------------*/
FoamFile
{
    version     2.0;
    format      ascii;
    class       volScalarField;
    location    "900";
    object      PPD;
}
// * * * * * * * * * * * * * * * * * * * * * * * * * * * * * * * * * * * * * //

dimensions      [0 0 0 0 0 0 0];

internalField   nonuniform List<scalar> 
459
(
64.58232709626911
53.462587693977206
52.22411103052087
50.9984020898397
50.13541325219291
49.552779362388854
49.211372976841886
49.16603339374441
49.378408418018196
49.85513013934716
50.69067489527361
51.96405383626973
53.76427274003071
55.924968779718476
56.828368815804915
60.49946316478542
59.830430674082116
59.54686930358127
59.572659463969174
59.624232759850855
59.701574977392305
59.4467830503443
59.31674861366086
59.30518105470106
59.33548623502041
59.38675089863489
59.45820214960992
59.5303131761678
59.6730723430906
59.88986431310433
60.34526272473815
60.47376406144641
60.55085316564471
61.03849650183096
63.169132389100355
54.550231696800424
54.24584482556215
53.145113000135595
52.48413617605569
52.00892558982555
51.76892246964314
51.711583278294725
51.78744168663251
51.980830863852276
52.33331202737634
52.989192619219715
54.0234509802464
55.322995263730434
56.53197591153221
57.42516160121296
57.4511062867671
57.85357476066814
59.443685500922854
59.18556769428232
58.92674581248124
58.543676979771554
58.30727210630404
58.25449872183843
58.268329711508166
58.285336829186384
58.25870612453223
58.25135202211807
58.22203153613912
58.22386317384015
58.23440847313844
58.31911504775785
58.66909252835044
59.4178838146639
59.624232759850855
58.84283931839836
65.77467947687902
54.68678039866069
56.04626238067647
55.48796554134442
55.338792926840824
55.24715181864304
55.23316542137486
55.316615035435234
55.27770180163764
54.973335989154265
54.535142589563804
54.274281101318444
54.40741499073116
55.05197500447757
56.39697529667215
57.347318998503745
57.4511062867671
53.5177593909061
56.085259593633296
56.981322248630605
57.357494424553735
57.69728465262148
57.923393858779676
58.10113482488887
58.329951218512186
58.471459418856
58.487981150097035
58.48496295464624
58.43591817790889
58.35997998632355
58.216566028004195
57.926227262096845
57.94133456669119
58.81768071058331
58.21975022636668
55.66642530299127
69.89428088638128
54.97507178267886
57.448233002803875
57.744999395421175
58.493645098982725
59.194282792452924
59.76322131111474
60.15885863235209
59.75296562644474
58.46395503668557
56.63983631659308
55.00063263529492
54.07738403055222
54.04756583198657
55.08182298682326
56.862319112344295
57.443267072450126
55.66972447282631
54.677243683981395
56.00239529756543
57.24018393476647
58.04263370596985
58.59149207121287
58.862520034171844
58.76088518534534
58.55027660275765
58.37210494155974
58.21010789131304
58.12385221814803
58.112285612649806
58.31510081733973
58.80526483321548
59.841794772583214
59.71823945081045
59.208956785045956
56.98017688771205
53.274957524574845
74.35200677828931
56.108284905333306
58.77707333034306
59.798507967050135
61.71969216362812
63.77545901820092
65.68355784712395
66.29035752784331
64.02446028065444
60.768723415123354
57.38689390225673
54.65436317395636
53.089615795035634
52.731516412896454
53.46272077229316
54.849464151084234
55.949996914222
56.15601853818175
56.37612980291069
57.54647366817054
58.973839482103166
60.11696534236002
60.55085316564471
60.8076362124668
61.03849650183096
61.21788909534373
61.06004410306746
60.841960187232424
60.599015757897305
60.38407575729321
60.26145535700083
60.29332197232059
60.38903818951514
59.88007481345182
58.81074628759286
55.85074552969622
55.70127847258437
61.95945971235357
60.775430673500225
52.44481550893961
78.42761274413458
58.42028037377415
61.4364159379401
62.22312062168063
64.5590637581951
66.66210467378681
68.01272497685511
67.54399262809679
63.79798479418986
59.92046758144478
56.23120683086745
53.330234201521904
51.66409659148694
51.40515914850521
52.3510744959979
54.04368100136184
55.92513509122789
57.46313936025995
58.8191156564182
60.010725554398135
60.65360003811088
61.14102456151238
61.52507091804795
61.78070805975287
61.98498233611319
62.13804704771453
62.24002174281325
62.29098829569539
62.265506761196214
62.16354589298804
61.98498233611319
61.72960650068257
61.3017695278759
60.1491993538202
58.627547916098706
55.54777770105542
55.6648849829686
56.3007676544204
56.08859649222362
56.495048190296245
82.01927383809515
63.4423626822969
69.0710221948782
67.06409994658735
66.58238158774347
66.96017520209546
66.17181549410623
64.06844828963061
60.784028810163775
56.879750774094795
53.28343694752545
50.728483740210606
49.70653254220056
50.20874757154665
51.96472511558424
54.57581657119136
57.47184752859418
59.2630263602308
60.29379477060813
61.11539702632581
61.75515891338656
62.21453325140298
62.520163539224555
62.723630826336496
62.87607706903459
62.97763315822506
63.05376049452158
63.05376049452158
62.97763315822506
62.82527651603615
62.54560963759475
62.18904129784002
61.80625392889619
61.34413436187013
59.42903200981371
56.544994566223565
55.54126926052363
54.922946039930146
53.52872851560569
58.08664735564282
86.76814825252951
78.66402237036368
76.73933695887146
71.933147521244
69.61908549227267
67.60295035308295
64.6661714736691
60.50973220608007
55.739490352588014
51.326870636072705
48.24703386849052
46.95070187653337
47.53044743191188
49.76991285841087
53.12962997454539
57.24499098209891
59.15974377650122
60.55085316564471
61.67849191982966
62.392879377558145
62.8506786592163
63.1805628458017
63.40856211153449
63.560383407689635
63.66151703307075
63.712059415653606
63.73732446174479
63.68679026917711
63.6109583350403
63.43387565157623
63.20591173739078
62.799870650330114
62.41834332969402
62.0105015955748
61.601795823329034
61.16791681016368
59.75094490063612
59.02276101354813
55.97147503927117
51.99533558942046
92.21824584346246
88.51244452222346
82.54076520459591
75.57223910467336
69.06029249387569
63.099020352419515
56.03804183702437
48.79897663310085
43.39396655475433
40.757422370312796
40.796946532891894
43.078432394914536
47.13371288544779
52.46848649195849
56.77610748365454
59.10808946285247
61.012857057071614
62.18904129784002
62.97763315822506
63.45918520972096
63.78784220973907
64.01119605724277
63.860656914015365
63.74769204496698
63.57148366931107
63.383224793910586
63.11992145048835
62.79906969068517
62.43595967165129
61.983864864209735
61.48381164835641
60.91890000633417
60.446726114998235
59.886766588283066
59.20458971022848
58.60646412082762
58.113888779527876
57.741921330775796
57.00395496631378
55.45913991323919
98.77236265338051
39.251576325656785
12.342375836468946
5.27198005242893
6.209294230163408
11.473102030072695
19.79128360170796
29.62670996864466
39.66138724101296
47.714827350279194
52.97666367284603
57.347318998503745
59.984976627156165
61.72960650068257
62.26214052694534
62.52736843096714
62.66150896488951
62.66118020578961
62.639827137163856
62.537962700151176
62.43542447472002
62.26855290452722
62.08070542553491
61.868720514372605
61.60912510204801
61.3626550412063
61.09167104670334
60.893791215590056
60.710297291987715
60.63816299918691
60.608029623832905
60.61741236928511
60.691007596775435
60.8297506455296
61.298165417427896
62.86314604317076
68.40128384070029
60.251924525455614
88.60195994791258
17.429968225716706
5.513972276112597
12.094231271484503
20.698289205251513
29.944148512885306
38.437385976694706
45.71544956252648
50.125522640186844
53.397495455363256
55.94052331591914
57.89322021520794
59.22543561819206
60.13442347354677
60.734930792772914
61.13598617251853
61.393025712783434
61.56683657346467
61.67942672595962
61.733828354289926
61.758097420968014
61.73070954893575
61.68089776615834
61.612517474712334
61.53191767125867
61.47567307624263
61.40581948292196
61.371975644810234
61.433902414411335
61.6068495012942
61.98825305946372
62.57732270162007
63.290683145781394
63.9554156522417
64.75107524558472
67.89065521365822
62.43211155309322
66.91651569575549
21.475890322763547
27.259811927785137
22.32112795015449
7.038113801739513
19.17579754197621
28.431399443912042
35.717639148397225
41.7978518414283
46.64969709069987
50.37431158204253
53.28774661080036
55.532038744830025
57.26460878286835
58.511835021169034
59.30697022995867
59.75459479706517
59.97053998140948
60.04376443366587
60.08553660800131
60.12203719183066
60.20701900834249
60.27830683185415
60.36015008938888
60.44978036311081
60.545439823826406
60.6210778780667
60.73591144748958
60.84838647470029
61.032584040319705
61.291527342624065
61.65641160210167
62.22314515906325
63.20568976484941
64.93301168683189
66.7115121159925
66.98286678715934
67.22897728062999
63.49861703950734
63.445075146730524
57.93058996223982
)
;

boundaryField
{
    ".*"
    {
        type            zeroGradient;
    }
}


// ************************************************************************* //
