// -*- C++ -*-
// File generated by PyFoam - sorry for the ugliness

FoamFile
{
 version 2.0;
 format ascii;
 class volScalarField;
 location "300";
 object T;
}

dimensions [ 0 0 0 1 0 0 0 ];

internalField nonuniform List<scalar> 459
(
  301.056
  300.735
  300.734
  300.743
  300.75
  300.756
  300.76
  300.761
  300.756
  300.745
  300.727
  300.703
  300.674
  300.642
  300.616
  300.526
  300.552
  300.591
  300.593
  300.586
  300.572
  300.552
  300.529
  300.506
  300.481
  300.457
  300.434
  300.413
  300.394
  300.379
  300.367
  300.359
  300.359
  300.393
  301.282
  300.793
  300.78
  300.802
  300.823
  300.84
  300.853
  300.86
  300.858
  300.846
  300.826
  300.801
  300.771
  300.731
  300.668
  300.559
  300.378
  300.525
  300.605
  300.646
  300.661
  300.659
  300.645
  300.615
  300.581
  300.548
  300.514
  300.481
  300.449
  300.419
  300.39
  300.364
  300.342
  300.325
  300.322
  300.374
  301.512
  300.856
  300.821
  300.851
  300.885
  300.915
  300.937
  300.949
  300.946
  300.928
  300.902
  300.874
  300.848
  300.82
  300.784
  300.735
  300.653
  300.77
  300.765
  300.765
  300.765
  300.761
  300.748
  300.707
  300.663
  300.621
  300.581
  300.542
  300.504
  300.467
  300.431
  300.397
  300.376
  300.35
  300.336
  300.377
  301.737
  300.93
  300.857
  300.89
  300.937
  300.982
  301.018
  301.037
  301.029
  300.999
  300.96
  300.925
  300.9
  300.881
  300.861
  300.84
  300.822
  300.832
  300.838
  300.85
  300.858
  300.861
  300.86
  300.858
  300.866
  300.873
  300.879
  300.882
  300.881
  300.875
  300.865
  300.85
  300.823
  300.659
  300.507
  300.391
  300.395
  301.952
  301.022
  300.896
  300.919
  300.974
  301.035
  301.094
  301.122
  301.105
  301.057
  301.001
  300.956
  300.931
  300.92
  300.914
  300.908
  300.903
  300.909
  300.918
  300.929
  300.938
  300.943
  300.946
  300.949
  300.959
  300.966
  300.97
  300.971
  300.967
  300.957
  300.938
  300.911
  300.87
  300.773
  300.626
  300.483
  300.426
  300.694
  300.737
  300.74
  302.143
  301.14
  300.972
  300.96
  301.008
  301.078
  301.169
  301.197
  301.162
  301.095
  301.025
  300.974
  300.949
  300.945
  300.952
  300.96
  300.967
  300.975
  300.987
  300.999
  301.01
  301.017
  301.021
  301.024
  301.03
  301.033
  301.034
  301.03
  301.022
  301.009
  300.987
  300.955
  300.912
  300.84
  300.728
  300.595
  300.509
  300.576
  300.612
  300.667
  302.317
  301.334
  301.161
  301.115
  301.133
  301.195
  301.261
  301.258
  301.195
  301.106
  301.025
  300.972
  300.954
  300.963
  300.986
  301.009
  301.027
  301.041
  301.055
  301.068
  301.078
  301.084
  301.086
  301.087
  301.087
  301.085
  301.079
  301.07
  301.057
  301.041
  301.019
  300.988
  300.946
  300.888
  300.808
  300.709
  300.636
  300.633
  300.643
  300.678
  302.578
  301.84
  301.649
  301.528
  301.465
  301.455
  301.407
  301.306
  301.179
  301.06
  300.979
  300.944
  300.95
  300.983
  301.027
  301.066
  301.093
  301.11
  301.124
  301.134
  301.141
  301.143
  301.142
  301.137
  301.129
  301.119
  301.106
  301.09
  301.074
  301.057
  301.038
  301.015
  300.976
  300.93
  300.878
  300.82
  300.793
  300.816
  300.825
  301.005
  302.955
  302.608
  302.308
  302.042
  301.826
  301.63
  301.393
  301.159
  300.983
  300.885
  300.862
  300.896
  300.959
  301.028
  301.095
  301.14
  301.166
  301.181
  301.191
  301.197
  301.199
  301.195
  301.186
  301.174
  301.159
  301.142
  301.124
  301.106
  301.089
  301.074
  301.063
  301.056
  301.056
  301.06
  301.076
  301.107
  301.152
  301.198
  301.229
  301.319
  294.196
  296.802
  298.256
  298.894
  299.375
  299.807
  300.178
  300.485
  300.734
  300.93
  301.067
  301.144
  301.193
  301.223
  301.241
  301.252
  301.256
  301.255
  301.249
  301.239
  301.225
  301.208
  301.19
  301.171
  301.153
  301.137
  301.123
  301.113
  301.108
  301.106
  301.108
  301.116
  301.135
  301.164
  301.2
  301.237
  301.272
  301.314
  295.237
  297.344
  298.78
  299.507
  299.99
  300.355
  300.63
  300.839
  300.997
  301.114
  301.194
  301.245
  301.277
  301.297
  301.308
  301.312
  301.31
  301.304
  301.294
  301.28
  301.263
  301.244
  301.226
  301.207
  301.19
  301.174
  301.161
  301.15
  301.142
  301.137
  301.136
  301.14
  301.153
  301.173
  301.202
  301.23
  301.242
  301.289
  297.582
  297.519
  297.514
  299.313
  300.137
  300.521
  300.764
  300.938
  301.066
  301.162
  301.236
  301.293
  301.335
  301.363
  301.382
  301.393
  301.398
  301.397
  301.391
  301.38
  301.363
  301.344
  301.324
  301.304
  301.284
  301.266
  301.25
  301.234
  301.221
  301.208
  301.195
  301.184
  301.176
  301.171
  301.172
  301.184
  301.2
  301.213
  301.224
  301.273
)
;

boundaryField
{
  floor
  {
    type wallHeatTransfer;
    Tinf uniform 305.2;
    alphaWall uniform 0.24;
    value nonuniform List<scalar> 29
(
  301.077
  301.324
  301.259
  301.252
  301.259
  301.266
  301.275
  301.288
  301.302
  301.314
  301.325
  301.334
  301.343
  301.351
  301.358
  301.367
  301.378
  301.391
  301.374
  301.437
  301.437
  301.225
  301.122
  301.1
  301.077
  301.324
  301.276
  301.237
  301.215
)
;
  }
  ceiling
  {
    type wallHeatTransfer;
    Tinf uniform 303.2;
    alphaWall uniform 0.24;
    value nonuniform List<scalar> 43
(
  297.921
  297.847
  297.832
  299.522
  300.312
  300.682
  300.917
  301.087
  301.212
  301.308
  301.384
  301.444
  301.489
  301.522
  301.544
  301.558
  301.565
  301.566
  301.564
  301.556
  301.543
  301.527
  301.51
  301.492
  301.475
  301.459
  301.444
  301.43
  301.416
  301.402
  301.387
  301.371
  301.356
  301.343
  301.335
  301.339
  301.351
  301.367
  301.387
  301.443
  302.965
  302.63
  295.663
)
;
  }
  sWall
  {
    type wallHeatTransfer;
    Tinf uniform 315.2;
    alphaWall uniform 0.36;
    value uniform 299.134;
  }
  nWall
  {
    type wallHeatTransfer;
    Tinf uniform 307.2;
    alphaWall uniform 0.36;
    value nonuniform List<scalar> 6
(
  301.74
  301.62
  301.478
  302.04
  302.006
  302.022
)
;
  }
  sideWalls
  {
    type empty;
  }
  glass1
  {
    type wallHeatTransfer;
    Tinf uniform 315.2;
    alphaWall uniform 4.3;
    value nonuniform List<scalar> 9
(
  310.609
  309.725
  309.193
  308.802
  308.493
  308.226
  308.036
  308.139
  308.433
)
;
  }
  glass2
  {
    type wallHeatTransfer;
    Tinf uniform 307.2;
    alphaWall uniform 4.3;
    value nonuniform List<scalar> 2
(
  304.583
  304.826
)
;
  }
  sun
  {
    type wallHeatTransfer;
    Tinf uniform 305.2;
    alphaWall uniform 0.24;
    value nonuniform List<scalar> 14
(
  301.477
  301.161
  301.16
  301.154
  301.147
  301.141
  301.133
  301.125
  301.115
  301.104
  301.093
  301.083
  301.076
  301.074
)
;
  }
  heatsource1
  {
    type fixedGradient;
    gradient uniform 0;
  }
  heatsource2
  {
    type fixedGradient;
    gradient uniform 0;
  }
  Table_master
  {
    type zeroGradient;
  }
  Table_slave
  {
    type zeroGradient;
  }
  inlet
  {
    type fixedValue;
    value uniform 290.15;
  }
  outlet
  {
    type zeroGradient;
  }
} 	// ************************************************************************* //

