// -*- C++ -*-
// File generated by PyFoam - sorry for the ugliness

FoamFile
{
 version 2.0;
 format ascii;
 class volVectorField;
 location "2000";
 object U;
}

dimensions [ 0 1 -1 0 0 0 0 ];

internalField nonuniform List<vector> 459
(
  (0.0333176 0.0882298 0)
  (-0.17166 0.0264922 0)
  (-0.196859 0.0178811 0)
  (-0.227592 0.0119118 0)
  (-0.249242 0.00538304 0)
  (-0.260851 -0.00144318 0)
  (-0.260976 -0.00857501 0)
  (-0.248957 -0.0159734 0)
  (-0.22573 -0.0229024 0)
  (-0.193332 -0.0282698 0)
  (-0.155185 -0.0312526 0)
  (-0.11504 -0.0315722 0)
  (-0.0764352 -0.0295914 0)
  (-0.0444191 -0.026752 0)
  (-0.0340623 -0.0248314 0)
  (-0.00282563 0.00878634 0)
  (-0.0283664 -0.0193797 0)
  (-0.00315604 -0.029258 0)
  (0.021054 -0.0217593 0)
  (0.0380662 -0.0146407 0)
  (0.0509995 -0.00934851 0)
  (0.0587882 -0.00556166 0)
  (0.0627132 -0.00358337 0)
  (0.0644861 -0.00273414 0)
  (0.0654001 -0.00232551 0)
  (0.065979 -0.00206025 0)
  (0.0662981 -0.00184548 0)
  (0.0662943 -0.0015936 0)
  (0.065764 -0.00112993 0)
  (0.0641426 -7.24926e-05 0)
  (0.0602244 0.00210919 0)
  (0.0527034 0.00438186 0)
  (0.0462278 0.00620578 0)
  (-0.015086 0.0227329 0)
  (0.209647 0.180254 0)
  (-0.158706 0.0696947 0)
  (-0.157347 0.0529756 0)
  (-0.188765 0.0403898 0)
  (-0.209989 0.0262765 0)
  (-0.221679 0.0107056 0)
  (-0.222342 -0.00641495 0)
  (-0.211302 -0.024196 0)
  (-0.190065 -0.0402034 0)
  (-0.160989 -0.0520164 0)
  (-0.127535 -0.0580879 0)
  (-0.0931412 -0.0581582 0)
  (-0.06094 -0.0528402 0)
  (-0.0343582 -0.0436904 0)
  (-0.017679 -0.0325395 0)
  (-0.00401042 -0.0145496 0)
  (-0.00429254 0.0171123 0)
  (0.0730731 0.0365947 0)
  (0.0308803 -0.0200264 0)
  (0.0384391 -0.0334435 0)
  (0.0502459 -0.0289049 0)
  (0.0594223 -0.0201124 0)
  (0.0656458 -0.0119653 0)
  (0.0681896 -0.00500426 0)
  (0.0685902 -0.00113867 0)
  (0.0684958 0.000490984 0)
  (0.0685778 0.00122835 0)
  (0.0687533 0.00167897 0)
  (0.0688779 0.00205467 0)
  (0.0689084 0.0025337 0)
  (0.068791 0.00345796 0)
  (0.0679833 0.0057471 0)
  (0.0639965 0.0121084 0)
  (0.0539329 0.0173837 0)
  (0.0502005 0.0208206 0)
  (-0.056931 0.0490574 0)
  (0.370815 0.2692 0)
  (-0.173727 0.110387 0)
  (-0.117616 0.0852018 0)
  (-0.147476 0.0629885 0)
  (-0.165964 0.0398744 0)
  (-0.176277 0.0147277 0)
  (-0.175914 -0.012869 0)
  (-0.164028 -0.0409961 0)
  (-0.14329 -0.0653589 0)
  (-0.116664 -0.0823188 0)
  (-0.087655 -0.0900162 0)
  (-0.0589475 -0.0887687 0)
  (-0.0325899 -0.0796852 0)
  (-0.0106655 -0.0646065 0)
  (0.00573223 -0.0440612 0)
  (0.0170716 -0.0185353 0)
  (0.023033 0.0181597 0)
  (0.120438 -0.0363334 0)
  (0.0789539 -0.0438241 0)
  (0.0729559 -0.0417691 0)
  (0.0747707 -0.034336 0)
  (0.0761067 -0.0248832 0)
  (0.0769378 -0.0167343 0)
  (0.0752026 -0.0133932 0)
  (0.070696 -0.00941811 0)
  (0.0675548 -0.00725569 0)
  (0.066144 -0.0060172 0)
  (0.0655345 -0.00522678 0)
  (0.0652293 -0.00467734 0)
  (0.0652433 -0.00416997 0)
  (0.0660513 -0.00332971 0)
  (0.0688699 -0.000146208 0)
  (0.066538 0.0173604 0)
  (0.052213 0.0295282 0)
  (0.0569975 0.0373427 0)
  (-0.0944033 0.0757348 0)
  (0.515611 0.340492 0)
  (-0.206642 0.146292 0)
  (-0.0764363 0.112242 0)
  (-0.103676 0.0817207 0)
  (-0.116369 0.0517815 0)
  (-0.122361 0.0184649 0)
  (-0.117272 -0.0195075 0)
  (-0.102256 -0.0579239 0)
  (-0.0816636 -0.0893117 0)
  (-0.0585984 -0.10964 0)
  (-0.0360531 -0.117517 0)
  (-0.0151858 -0.114508 0)
  (0.00362115 -0.101926 0)
  (0.0192573 -0.0826001 0)
  (0.0327954 -0.0587114 0)
  (0.047582 -0.0315409 0)
  (0.0700915 -0.00160039 0)
  (0.102273 0.0130607 0)
  (0.108297 -0.0287289 0)
  (0.0928567 -0.0380646 0)
  (0.0834899 -0.0353934 0)
  (0.0787798 -0.0297472 0)
  (0.0754796 -0.0223924 0)
  (0.073681 -0.0134814 0)
  (0.0753541 -0.00788845 0)
  (0.0798749 -0.00605557 0)
  (0.0835582 -0.00501026 0)
  (0.0859056 -0.00420281 0)
  (0.0871727 -0.00321624 0)
  (0.086731 -0.00177913 0)
  (0.083589 0.000305433 0)
  (0.0765072 0.0033323 0)
  (0.0625058 0.00787476 0)
  (0.050871 0.0286465 0)
  (0.038414 0.0456263 0)
  (0.0607378 0.0583172 0)
  (-0.139532 0.0983249 0)
  (0.639744 0.395574 0)
  (-0.247154 0.175497 0)
  (-0.0367167 0.127189 0)
  (-0.0579351 0.0917634 0)
  (-0.0620299 0.0577158 0)
  (-0.0596603 0.017874 0)
  (-0.0429945 -0.0301712 0)
  (-0.0237278 -0.0761034 0)
  (-0.00508444 -0.110321 0)
  (0.0114587 -0.130268 0)
  (0.0241333 -0.135458 0)
  (0.03413 -0.129568 0)
  (0.0418254 -0.114974 0)
  (0.048097 -0.0943263 0)
  (0.0541555 -0.0702689 0)
  (0.0619011 -0.0458874 0)
  (0.0740317 -0.0270968 0)
  (0.0847376 -0.0254711 0)
  (0.0857525 -0.0336583 0)
  (0.0786691 -0.0336772 0)
  (0.0699512 -0.0294645 0)
  (0.063122 -0.0243385 0)
  (0.0581716 -0.0186776 0)
  (0.0553957 -0.012522 0)
  (0.0553051 -0.00679388 0)
  (0.0575341 -0.0040975 0)
  (0.0600371 -0.00306696 0)
  (0.0624127 -0.0021679 0)
  (0.0645449 -0.000388301 0)
  (0.0659981 0.00275461 0)
  (0.0655857 0.00733468 0)
  (0.0627554 0.0135135 0)
  (0.0567814 0.0219737 0)
  (0.0496706 0.0378276 0)
  (0.0383273 0.0569791 0)
  (0.0681508 0.0781618 0)
  (-0.0380429 0.110389 0)
  (0.0474294 0.0249592 0)
  (-0.0692246 -0.0376356 0)
  (-0.285976 -0.0612002 0)
  (0.729045 0.441244 0)
  (-0.286372 0.194699 0)
  (-0.0069075 0.121409 0)
  (-0.00965327 0.0896258 0)
  (-0.000718304 0.0543171 0)
  (0.0193513 0.00553563 0)
  (0.0491322 -0.0499211 0)
  (0.0688943 -0.0940046 0)
  (0.0812377 -0.123618 0)
  (0.0868563 -0.138767 0)
  (0.0871133 -0.140805 0)
  (0.0837936 -0.132321 0)
  (0.0783891 -0.116116 0)
  (0.0724773 -0.0950938 0)
  (0.0675038 -0.0719912 0)
  (0.0647329 -0.0497845 0)
  (0.0649015 -0.0325046 0)
  (0.0649657 -0.0251344 0)
  (0.061002 -0.0246012 0)
  (0.0531707 -0.0239713 0)
  (0.0445261 -0.0214176 0)
  (0.0374634 -0.0180439 0)
  (0.0324842 -0.0143876 0)
  (0.0298411 -0.0106066 0)
  (0.0296101 -0.00748073 0)
  (0.0313312 -0.00636007 0)
  (0.033965 -0.00621806 0)
  (0.0371107 -0.00574567 0)
  (0.0405746 -0.00390931 0)
  (0.0442077 0.000138737 0)
  (0.0471897 0.00649952 0)
  (0.0487072 0.0148376 0)
  (0.0490184 0.0254116 0)
  (0.0496872 0.0401058 0)
  (0.0477166 0.0587123 0)
  (0.0763313 0.0834881 0)
  (0.0479267 0.102923 0)
  (0.0975394 0.0684893 0)
  (0.122223 0.0447832 0)
  (-0.138414 -0.00985687 0)
  (0.78583 0.483007 0)
  (-0.304204 0.179135 0)
  (0.0240438 0.0651989 0)
  (0.0577613 0.0550985 0)
  (0.083985 0.0293828 0)
  (0.127958 -0.0245157 0)
  (0.156632 -0.0728161 0)
  (0.170503 -0.107179 0)
  (0.171575 -0.127484 0)
  (0.16252 -0.135108 0)
  (0.146486 -0.131889 0)
  (0.126574 -0.120266 0)
  (0.105466 -0.103003 0)
  (0.0853982 -0.0827515 0)
  (0.0679675 -0.0617111 0)
  (0.0541471 -0.0422461 0)
  (0.044178 -0.0272608 0)
  (0.0364608 -0.0191688 0)
  (0.0287332 -0.0164994 0)
  (0.0204725 -0.0154844 0)
  (0.0127993 -0.0140919 0)
  (0.00677737 -0.0124295 0)
  (0.00270802 -0.0107778 0)
  (0.000711901 -0.00926949 0)
  (0.000734024 -0.00838323 0)
  (0.00229309 -0.00862924 0)
  (0.00471692 -0.00932068 0)
  (0.00776217 -0.00952151 0)
  (0.011481 -0.00832879 0)
  (0.0160332 -0.00469668 0)
  (0.0225846 0.00233151 0)
  (0.0286878 0.0114658 0)
  (0.0346784 0.0220795 0)
  (0.0425085 0.0349542 0)
  (0.0505045 0.0498933 0)
  (0.0767142 0.0699361 0)
  (0.0896111 0.0777276 0)
  (0.126391 0.0510624 0)
  (0.168666 0.0419065 0)
  (-0.0323092 0.0952781 0)
  (0.893774 0.482454 0)
  (-0.0562768 0.157526 0)
  (0.1195 -0.0235972 0)
  (0.207786 -0.0595884 0)
  (0.253642 -0.0729165 0)
  (0.278669 -0.0895611 0)
  (0.287569 -0.104963 0)
  (0.279781 -0.114715 0)
  (0.257491 -0.117679 0)
  (0.224955 -0.114066 0)
  (0.186883 -0.104718 0)
  (0.147375 -0.0908803 0)
  (0.109714 -0.0743862 0)
  (0.0762115 -0.0570277 0)
  (0.0480922 -0.0400272 0)
  (0.0260834 -0.0250399 0)
  (0.0103395 -0.0143863 0)
  (-0.000649795 -0.00910444 0)
  (-0.00881624 -0.00781816 0)
  (-0.0156309 -0.00785897 0)
  (-0.0212852 -0.00792851 0)
  (-0.0255901 -0.00793852 0)
  (-0.0285415 -0.0080246 0)
  (-0.0301728 -0.00831467 0)
  (-0.0306376 -0.0090191 0)
  (-0.030326 -0.0102174 0)
  (-0.0296378 -0.0115597 0)
  (-0.028676 -0.0125657 0)
  (-0.0272567 -0.012732 0)
  (-0.0249334 -0.0114587 0)
  (-0.0206196 -0.00798047 0)
  (-0.0108282 -0.00163006 0)
  (-0.00146593 0.00643556 0)
  (0.0103142 0.0146676 0)
  (0.022721 0.0216567 0)
  (0.0453232 0.0300288 0)
  (0.0655281 0.0236492 0)
  (0.0847352 -0.00270184 0)
  (0.145347 0.0510799 0)
  (-0.474238 0.217867 0)
  (1.04603 0.426925 0)
  (0.495511 0.278744 0)
  (0.514648 0.172929 0)
  (0.54975 0.0948464 0)
  (0.529808 0.0409985 0)
  (0.482161 -0.00168331 0)
  (0.42709 -0.0329078 0)
  (0.366881 -0.0519149 0)
  (0.302363 -0.060002 0)
  (0.236915 -0.0596868 0)
  (0.174624 -0.0536699 0)
  (0.118392 -0.0439521 0)
  (0.0704444 -0.0326836 0)
  (0.0312791 -0.0215324 0)
  (0.000148654 -0.0113514 0)
  (-0.0213703 -0.00435727 0)
  (-0.0336004 -0.00137813 0)
  (-0.0410724 -0.000806943 0)
  (-0.0462655 -0.00150809 0)
  (-0.0506995 -0.00257655 0)
  (-0.0545448 -0.00363831 0)
  (-0.0578003 -0.00467975 0)
  (-0.060519 -0.00577002 0)
  (-0.0628096 -0.00694924 0)
  (-0.0648982 -0.00825057 0)
  (-0.0671346 -0.00960246 0)
  (-0.0698765 -0.0107371 0)
  (-0.0734168 -0.0112669 0)
  (-0.0780577 -0.0107045 0)
  (-0.0842272 -0.00842165 0)
  (-0.0925103 -0.00365998 0)
  (-0.10284 0.00414026 0)
  (-0.113542 0.0146363 0)
  (-0.129256 0.027931 0)
  (-0.154029 0.0438449 0)
  (-0.189995 0.0608607 0)
  (-0.241682 0.0745552 0)
  (-0.303406 0.0827383 0)
  (-0.380951 0.0862199 0)
  (-0.655211 0.0803536 0)
  (-0.180725 -0.020467 0)
  (0.100384 -0.0354126 0)
  (0.177259 -0.0549726 0)
  (0.164452 -0.0475498 0)
  (0.145369 -0.0344912 0)
  (0.121415 -0.0226238 0)
  (0.0896343 -0.0124896 0)
  (0.0539341 -0.0045596 0)
  (0.019133 0.000914607 0)
  (-0.013724 0.00455964 0)
  (-0.0375367 0.00589181 0)
  (-0.0548845 0.00602971 0)
  (-0.0660246 0.0051206 0)
  (-0.0718405 0.00307237 0)
  (-0.0751392 0.000595217 0)
  (-0.0774158 -0.0019378 0)
  (-0.0795088 -0.00448767 0)
  (-0.0817211 -0.00686205 0)
  (-0.0842335 -0.00887555 0)
  (-0.0869791 -0.0103302 0)
  (-0.0898075 -0.0113756 0)
  (-0.0927934 -0.0120793 0)
  (-0.0961195 -0.0124743 0)
  (-0.0999679 -0.0125068 0)
  (-0.104445 -0.0119756 0)
  (-0.109519 -0.0105369 0)
  (-0.114975 -0.0077358 0)
  (-0.120397 -0.00305362 0)
  (-0.125164 0.00387701 0)
  (-0.128808 0.0133195 0)
  (-0.13171 0.0261944 0)
  (-0.134146 0.0430086 0)
  (-0.136913 0.0631702 0)
  (-0.140171 0.0835566 0)
  (-0.14008 0.0958748 0)
  (-0.11794 0.0856464 0)
  (-0.0422564 0.0285434 0)
  (-0.209308 -0.186767 0)
  (0.0358509 0.198067 0)
  (0.0139651 0.063863 0)
  (-0.0318213 0.0118147 0)
  (-0.0553294 0.0109932 0)
  (-0.0735121 0.0170263 0)
  (-0.0869402 0.0215562 0)
  (-0.096014 0.0253072 0)
  (-0.102826 0.0284511 0)
  (-0.107721 0.0304086 0)
  (-0.110958 0.0309121 0)
  (-0.112323 0.0304302 0)
  (-0.112316 0.0301615 0)
  (-0.111173 0.0302982 0)
  (-0.109465 0.0308862 0)
  (-0.107831 0.0321366 0)
  (-0.106525 0.0339559 0)
  (-0.105674 0.0359448 0)
  (-0.105305 0.0376211 0)
  (-0.105393 0.0385213 0)
  (-0.105834 0.0382117 0)
  (-0.106661 0.0370409 0)
  (-0.107863 0.0354717 0)
  (-0.109439 0.0336052 0)
  (-0.111363 0.0315213 0)
  (-0.113566 0.029326 0)
  (-0.115908 0.0271338 0)
  (-0.11814 0.0250269 0)
  (-0.119781 0.023259 0)
  (-0.120036 0.0230658 0)
  (-0.117738 0.0256357 0)
  (-0.111438 0.031986 0)
  (-0.0999395 0.0430313 0)
  (-0.0833614 0.0586237 0)
  (-0.0632199 0.0748062 0)
  (-0.042427 0.0820522 0)
  (0.0393481 0.0330763 0)
  (0.150421 -0.0587745 0)
  (-0.0518074 -0.0627642 0)
  (-0.0912168 -0.346529 0)
  (-0.446732 -0.138581 0)
  (-0.333507 0.0441602 0)
  (-0.291655 -0.0445979 0)
  (-0.250861 -0.0511197 0)
  (-0.239592 -0.0437636 0)
  (-0.231639 -0.0367758 0)
  (-0.222421 -0.0323782 0)
  (-0.210888 -0.0301673 0)
  (-0.197303 -0.0302458 0)
  (-0.182624 -0.0331428 0)
  (-0.168243 -0.038864 0)
  (-0.155378 -0.0466462 0)
  (-0.144651 -0.0552203 0)
  (-0.136156 -0.0640347 0)
  (-0.129743 -0.0728512 0)
  (-0.125044 -0.0813304 0)
  (-0.121616 -0.0890924 0)
  (-0.119124 -0.0957391 0)
  (-0.117358 -0.100851 0)
  (-0.116225 -0.104097 0)
  (-0.11573 -0.105298 0)
  (-0.115856 -0.104685 0)
  (-0.116485 -0.102809 0)
  (-0.117457 -0.0998143 0)
  (-0.118609 -0.0957823 0)
  (-0.11972 -0.0907123 0)
  (-0.120485 -0.0844999 0)
  (-0.120502 -0.0769047 0)
  (-0.119241 -0.067804 0)
  (-0.115739 -0.0577606 0)
  (-0.108166 -0.0466987 0)
  (-0.0939413 -0.0342937 0)
  (-0.0709124 -0.019846 0)
  (-0.0395366 -0.00285361 0)
  (0.00531933 0.0162288 0)
  (0.0465342 0.00812112 0)
  (0.107578 -0.0464814 0)
  (0.119372 -0.0878801 0)
  (-0.51725 0.0112568 0)
)
;

boundaryField
{
  floor
  {
    type noSlip;
  }
  ceiling
  {
    type noSlip;
  }
  sWall
  {
    type noSlip;
  }
  nWall
  {
    type noSlip;
  }
  sideWalls
  {
    type empty;
  }
  glass1
  {
    type noSlip;
  }
  glass2
  {
    type noSlip;
  }
  sun
  {
    type noSlip;
  }
  heatsource1
  {
    type noSlip;
  }
  heatsource2
  {
    type noSlip;
  }
  Table_master
  {
    type noSlip;
  }
  Table_slave
  {
    type noSlip;
  }
  inlet
  {
    type fixedValue;
    value uniform (0.277164 -0.114805 0);
  }
  outlet
  {
    type zeroGradient;
  }
} 	// ************************************************************************* //

