/*--------------------------------*- C++ -*----------------------------------*\
  =========                 |
  \\      /  F ield         | OpenFOAM: The Open Source CFD Toolbox
   \\    /   O peration     | Website:  https://openfoam.org
    \\  /    A nd           | Version:  6
     \\/     M anipulation  |
\*---------------------------------------------------------------------------*/
FoamFile
{
    version     2.0;
    format      ascii;
    class       volScalarField;
    location    "700";
    object      alphat;
}
// * * * * * * * * * * * * * * * * * * * * * * * * * * * * * * * * * * * * * //

dimensions      [1 -1 -1 0 0 0 0];

internalField   nonuniform List<scalar> 
459
(
0.000961093
0.00101871
0.00101776
0.0010547
0.00108665
0.00111434
0.00113905
0.00116202
0.00118466
0.00120467
0.00121806
0.00122235
0.00121635
0.0012026
0.00118561
0.000530604
0.000652417
0.000630339
0.000601687
0.000574508
0.000549106
0.000524506
0.000501725
0.000481032
0.00046242
0.00044559
0.000430239
0.000416088
0.000402812
0.000389965
0.000376899
0.000362563
0.000355103
0.000331514
0.00139572
0.0025029
0.00220043
0.00253418
0.00276746
0.00301362
0.00325815
0.00347912
0.00364224
0.00375811
0.00383176
0.00382
0.0036563
0.00323411
0.00238
0.00121375
0.00100159
0.000804391
0.00105833
0.00120455
0.00130639
0.00135944
0.00136071
0.00122393
0.0011325
0.00105975
0.000995024
0.000936167
0.000881717
0.000829538
0.000776345
0.000719693
0.000669051
0.000619867
0.000754305
0.000438846
0.00178356
0.00354047
0.00246214
0.00341699
0.00369398
0.00388648
0.00402667
0.00413107
0.00421245
0.00428947
0.00436363
0.00440406
0.00437789
0.00426381
0.0040311
0.0034162
0.00129236
0.000998428
0.00140578
0.00163211
0.00181093
0.00193778
0.00187758
0.000656575
0.000595621
0.000546381
0.000506424
0.000473662
0.000446503
0.000423866
0.000405195
0.000390672
0.000432315
0.000497964
0.000859407
0.000518828
0.00218175
0.00506828
0.00234161
0.0036864
0.00403041
0.00411403
0.00411921
0.00410577
0.00411621
0.00416585
0.00424011
0.00429856
0.00430601
0.0042658
0.00426135
0.00438759
0.0041423
0.00120863
0.00167706
0.00205146
0.00231702
0.00252268
0.00267603
0.0025123
0.000729981
0.000695373
0.000677798
0.0006667
0.000654346
0.000635352
0.00061389
0.000589335
0.000557913
0.000524532
0.000525828
0.00104737
0.000580221
0.00259592
0.00716878
0.00271443
0.00344311
0.0040865
0.00413138
0.0040475
0.0039552
0.00393438
0.0039985
0.0041148
0.00420934
0.00421887
0.0041142
0.003995
0.00416033
0.00438305
0.00391912
0.00351994
0.00333896
0.00327274
0.00329916
0.00336259
0.00336274
0.00306887
0.00299775
0.0029723
0.00293381
0.00285735
0.00272757
0.00247171
0.00212387
0.0017219
0.00129839
0.000943184
0.000999152
0.000733164
0.000766171
0.000907539
0.00100892
0.00303131
0.00949221
0.00448836
0.00304038
0.00373551
0.00398533
0.0039659
0.00384946
0.0037841
0.00389168
0.00407617
0.00422021
0.00424722
0.00408252
0.00381871
0.00392133
0.00421736
0.00414024
0.00389651
0.00372066
0.00360489
0.00356103
0.00357349
0.0036073
0.0036183
0.00363006
0.00361687
0.00357004
0.00348796
0.00337243
0.00319212
0.00289546
0.00248718
0.00198641
0.00150059
0.00108033
0.000923637
0.000871361
0.00131148
0.00105322
0.00347038
0.0113805
0.00791232
0.00438875
0.00335323
0.00324541
0.00346476
0.00371533
0.0037542
0.00394301
0.00414342
0.00429306
0.00431763
0.00410038
0.00372524
0.00378179
0.004177
0.00420882
0.0039842
0.00376726
0.00359544
0.00352475
0.0035297
0.00356587
0.00360126
0.00361626
0.0035975
0.00355199
0.00348831
0.0034168
0.00334234
0.00316294
0.00282764
0.00237333
0.0019364
0.00149455
0.00126887
0.00123901
0.00131972
0.00116285
0.00357923
0.0110922
0.00932403
0.00765194
0.00591548
0.00469311
0.00415432
0.00413663
0.00419041
0.00424346
0.00433617
0.00443033
0.00441241
0.00409828
0.00358299
0.00366581
0.00424782
0.00433198
0.0040018
0.00367635
0.00349227
0.00342874
0.00341841
0.00341859
0.00340945
0.00338291
0.00334068
0.00329418
0.00325978
0.0032536
0.00328726
0.00332779
0.00315769
0.00280073
0.00250916
0.00240655
0.00260771
0.00326075
0.00449199
0.0018117
0.00351037
0.00425689
0.00489201
0.00515862
0.00515395
0.00489879
0.0046233
0.00447141
0.00439429
0.00441912
0.00450183
0.00457052
0.00447758
0.00397833
0.00327815
0.00351152
0.00440639
0.00446048
0.00396603
0.00360315
0.00343191
0.00335715
0.00330713
0.00325121
0.0031789
0.00308928
0.00298763
0.00288251
0.00278203
0.00269094
0.00261042
0.00254001
0.00248466
0.00245896
0.0024936
0.00257566
0.00262579
0.00256309
0.00239482
0.0016922
0.00274197
0.00492568
0.00521076
0.00519924
0.00510963
0.00504045
0.00499511
0.00493542
0.00485347
0.00470529
0.00435189
0.00352925
0.00267954
0.00330268
0.00466179
0.0045683
0.00400413
0.00366592
0.00351849
0.00343109
0.00334666
0.00324878
0.00313495
0.00300917
0.00287953
0.00275623
0.0026502
0.00257263
0.00253452
0.00253905
0.00257492
0.00263922
0.00272942
0.002825
0.00289887
0.0029576
0.00266451
0.00143897
0.00290242
0.00573357
0.00593835
0.00575253
0.00553761
0.00533605
0.00509989
0.00483533
0.00443883
0.00396739
0.00338791
0.00250774
0.00179288
0.00279877
0.00386704
0.00392153
0.00357881
0.00337395
0.00326825
0.00318039
0.00308509
0.00298185
0.00287799
0.00278404
0.00271016
0.00266263
0.00264145
0.00263946
0.00265726
0.00271037
0.00279437
0.00290187
0.00302071
0.0031404
0.0032724
0.00339247
0.0023212
0.00149346
0.00247842
0.0026247
0.00274567
0.00289611
0.0027133
0.00255055
0.00231873
0.00212602
0.00193749
0.00175495
0.00160913
0.00147897
0.00135244
0.0012054
0.000911891
0.000930484
0.000971013
0.000940405
0.0009198
0.00090699
0.000899908
0.000895826
0.000894603
0.00089708
0.000904185
0.000916649
0.000934971
0.000959592
0.000991206
0.00103124
0.00108042
0.00113758
0.00120328
0.00127768
0.00136058
0.00145667
0.00149362
0.00137419
0.00128111
0.0014302
)
;

boundaryField
{
    floor
    {
        type            compressible::alphatWallFunction;
        Prt             0.85;
        value           nonuniform List<scalar> 
29
(
0.000168119
7.38746e-05
9.21449e-05
8.88644e-05
8.45884e-05
8.05097e-05
7.66761e-05
7.29427e-05
6.94659e-05
6.62905e-05
6.34198e-05
6.08113e-05
5.84213e-05
5.62083e-05
5.41234e-05
5.20973e-05
5.00279e-05
4.77466e-05
4.65546e-05
4.27649e-05
4.27643e-05
5.97601e-05
7.2075e-05
8.1366e-05
0.000168118
7.38737e-05
0.000114376
0.000142029
0.000171294
)
;
    }
    ceiling
    {
        type            compressible::alphatWallFunction;
        Prt             0.85;
        value           nonuniform List<scalar> 
43
(
0.000338531
0.000357094
0.000372365
0.000391387
0.000368458
0.000347891
0.000318337
0.000293521
0.000269003
0.000245015
0.000225655
0.00020821
0.000191086
0.000170978
0.00012991
0.00013254
0.000138288
0.000133958
0.000131032
0.000129208
0.000128199
0.000127617
0.000127442
0.000127795
0.000128808
0.000130583
0.000133186
0.000136676
0.000141141
0.000146772
0.000153655
0.00016161
0.000170697
0.000180918
0.000192229
0.000205244
0.000210222
0.000194081
0.000181393
0.000201678
0.000467803
0.000558523
0.000391922
)
;
    }
    sWall
    {
        type            compressible::alphatWallFunction;
        Prt             0.85;
        value           uniform 0.000337255;
    }
    nWall
    {
        type            compressible::alphatWallFunction;
        Prt             0.85;
        value           nonuniform List<scalar> 6(0.00014328 0.000149492 0.000164741 0.000202499 0.000209841 0.000201319);
    }
    sideWalls
    {
        type            empty;
    }
    glass1
    {
        type            compressible::alphatWallFunction;
        Prt             0.85;
        value           nonuniform List<scalar> 9(0.000132908 0.000192038 0.00024321 0.000294607 0.000347099 0.000401402 0.000455395 0.000468812 0.000460647);
    }
    glass2
    {
        type            compressible::alphatWallFunction;
        Prt             0.85;
        value           nonuniform List<scalar> 2(0.000250371 0.00023474);
    }
    sun
    {
        type            compressible::alphatWallFunction;
        Prt             0.85;
        value           nonuniform List<scalar> 
14
(
0.000136775
0.000144879
0.000144746
0.000149925
0.000154388
0.000158245
0.000161675
0.000164857
0.000167987
0.000170747
0.000172591
0.000173181
0.000172356
0.000170462
)
;
    }
    heatsource1
    {
        type            compressible::alphatWallFunction;
        Prt             0.85;
        value           nonuniform List<scalar> 3(0.000108988 0.000129325 0.000143677);
    }
    heatsource2
    {
        type            compressible::alphatWallFunction;
        Prt             0.85;
        value           nonuniform List<scalar> 4(0.000172176 0.000142659 0.000142657 0.000182974);
    }
    Table_master
    {
        type            compressible::alphatWallFunction;
        Prt             0.85;
        value           nonuniform List<scalar> 9(9.29103e-05 8.38297e-05 7.64106e-05 7.03288e-05 6.52972e-05 6.10928e-05 5.75634e-05 5.46342e-05 5.23438e-05);
    }
    Table_slave
    {
        type            compressible::alphatWallFunction;
        Prt             0.85;
        value           nonuniform List<scalar> 9(0.000103712 9.8637e-05 9.60485e-05 9.44099e-05 9.25817e-05 8.97625e-05 8.65645e-05 8.28887e-05 7.81571e-05);
    }
    inlet
    {
        type            fixedValue;
        value           uniform 1.94e-05;
    }
    outlet
    {
        type            zeroGradient;
    }
}


// ************************************************************************* //
