/*--------------------------------*- C++ -*----------------------------------*=========                 |
  \      /  F ield         | OpenFOAM: The Open Source CFD Toolbox
   \    /   O peration     | Website:  https://openfoam.org
    \  /    A nd           | Version:  6
     \/     M anipulation  |
\*---------------------------------------------------------------------------*/
FoamFile
{
    version     2.0;
    format      ascii;
    class       volScalarField;
    location    "700";
    object      PPD;
}
// * * * * * * * * * * * * * * * * * * * * * * * * * * * * * * * * * * * * * //

dimensions      [0 0 0 0 0 0 0];

internalField   nonuniform List<scalar> 
459
(
58.50565301925768
47.1351222645035
46.27658045127837
45.01150017291662
44.04785204532103
43.35721711836164
42.86051946923294
42.55512960688175
42.52003206392646
42.708655780703594
43.211092894502556
44.08953210698054
45.53472562941009
47.28603956619336
47.546452283033275
55.39279130373431
54.352529101536
54.248470168525664
54.22245512195209
53.766975005888625
53.159791456771984
52.91243260404165
52.810609652783995
52.80245847519215
52.818563110967425
52.8226537614177
52.84201172422545
52.885003369299206
52.9750173761646
53.170693748289686
53.595187698573746
53.962300685109305
53.93628507784109
54.30049990695378
57.08667041331084
47.55644378573722
47.87135861163774
46.6180747235778
45.82504450581046
45.22660992906316
44.849854568006705
44.63500844335213
44.604560086314464
44.753351462827986
44.968333882433875
45.34952022245904
45.909456102381185
46.51455864133605
47.089166732914165
49.672990384017844
52.19379704319051
50.03644536691511
53.91550316060683
54.09237854058399
53.532318129152266
53.02542109705974
52.73507513982757
52.5907602285063
52.51157277030096
52.43008393672531
52.351918406094775
52.23810631710654
52.12354617358023
52.03612645994572
51.95499987562926
51.94886825280613
52.220468354376735
52.84377145929649
52.89578386977161
51.75301585170214
60.43915889292092
47.01890309805572
49.42547790135883
48.57649507970268
48.26469224640206
48.06503964856848
47.94398617444842
47.94220600907614
47.98321702477096
48.05705425694934
47.94107936552231
47.587286207711514
47.06514568038155
46.554114958190155
46.804009608295786
49.17148395412292
52.45374221194704
49.1345767214436
53.2460899804656
54.170424727231826
54.22245512195209
54.063812820655485
53.9302855995753
53.79567063660577
53.75417677530633
53.57207272570931
53.36396366984325
53.181880932656426
52.938111150441564
52.66594664971131
52.32132565642068
51.829834964644114
51.65915859628203
52.40174794834019
51.44756750560912
48.14354870349151
65.31051186080435
46.781003399168085
50.536736973413014
50.35111263764061
50.84459251886129
51.292381889036754
51.71999019458267
52.0830343589315
52.321097971359485
52.326714842277525
51.73063940765186
50.39003717010139
48.53920275108726
46.7187351698366
46.06278851737499
47.56822526584063
51.16779857498487
53.41598967359427
52.07729734500738
53.48464124439419
54.50853580596583
54.638599471100235
54.664611423573135
54.638599471100235
54.61258724422035
54.061574880489005
53.37552049643004
52.778262706067274
52.32048558775491
52.0045673998085
51.98992245879932
52.356770026201744
53.397186325245215
53.2839805730866
52.71048718089246
49.93452190754879
45.42097199759494
70.43449992525863
47.51521672520458
51.36453084673759
51.824415302756655
53.13652688055722
54.47528232872534
55.71604469491712
56.76080036111025
57.350159737164354
57.17677887202467
55.749505949975884
53.187771936590146
49.95513330794181
46.83468469303884
45.24048867620025
46.310237765882825
49.440770023453865
52.61254983595837
53.26277076143295
54.74264552786577
55.05475052148873
55.18477640037133
55.21078012216408
55.21078012216408
55.21078012216408
55.18477640037133
55.158772179632614
54.9533955297103
54.34999271750399
53.87878890725203
53.573933088973
53.48988950664242
53.60869908732464
53.06865342100224
52.01683608948826
48.58212233647696
48.17604260832506
55.08075663088081
53.262547971838885
44.443062671257216
74.97775070408467
49.43135597699195
53.13960353555198
53.09162722721374
54.76185968837181
56.942433851979004
59.42661167290928
61.56538098724691
62.58473266776765
61.689138416058086
58.60266673465294
54.948885627161026
50.81277053356804
46.767950320267595
44.631765344947986
45.628235064879775
48.75996399915443
52.470014952688175
54.79466669637253
55.36679137475907
55.62676306258465
55.73073325961399
55.75672402465849
55.75672402465849
55.75672402465849
55.75672402465849
55.73073325961399
55.67874956695592
55.548778222229366
55.36679137475907
55.08075663088081
54.768656276006084
54.294793662540386
53.067568851629
51.541389103833204
48.08882721986216
48.42975374344245
49.0512926394173
48.63683568627987
48.781492413516105
78.6115289860665
54.36103320829553
60.29251146521357
56.17434318455364
55.779632928529956
57.70108644333523
60.74620209930298
61.820723167450595
63.26956824816829
61.59454602556628
58.5756080357171
54.92783952512122
50.664181914897014
46.401316494041424
44.2258230879153
45.431438817078345
48.922697247911735
53.260044729290776
55.41879064796603
55.96462277348799
56.17246895533129
56.25039659452249
56.30234367201798
56.30234367201798
56.32831577379091
56.30234367201798
56.27637060866406
56.1984457570633
56.042571548242925
55.808703338376446
55.470787539266034
55.05475052148873
54.638599471100235
54.11341668085578
52.11746984898809
48.96024329599068
48.06702622157948
47.369625386009254
45.79878487876287
50.923389160012476
83.9897054899445
72.69542654088323
70.83754801305913
63.79020411405712
60.53378281455522
59.592955354774375
59.72144796291704
59.99816586759076
59.7236276772415
58.771356265566624
56.596319519135676
53.337820578764635
49.37257603116223
45.29827042760449
43.698924789194194
45.71084466020826
50.104136744328905
55.00273697722822
56.09453314761769
56.51009265453979
56.66586067696574
56.74372980984728
56.79563685622387
56.82158863427362
56.84753923446032
56.84753923446032
56.82158863427362
56.74372980984728
56.5879815278355
56.38025704939059
56.09453314761769
55.62676306258465
55.158772179632614
54.74264552786577
54.352529101536
53.842208284887256
52.454374320191945
51.8525149071311
48.52336901995266
44.005642247912796
90.24416862378308
85.55167646795087
78.65007299499275
71.6087135630971
66.17300666007436
62.66284102142739
60.56632923031895
59.41114293368579
58.34245001275041
56.02198938781537
53.09410877947029
49.960291137479196
46.759937198063696
43.49800554570981
43.37485941099622
46.93747073559318
52.74141821131247
55.83469186552647
56.66586067696574
57.003217493894894
57.132914999286385
57.21071789436555
57.288508725406096
57.24367736465519
56.8988264572396
56.51148477287634
56.08129053712787
55.61113012704976
55.12244368394924
54.567985132976396
53.98625351159364
53.37636947567322
52.889465747487264
52.31108947180296
51.599752398555836
50.98938922413699
50.50417965460037
50.11905972836972
49.37527885708822
47.71048178934271
86.0163387218159
5.0388623307812
18.08081551828097
31.99666588572059
39.129334648069765
42.17160876429445
43.01401025404632
43.47400508202151
43.56375500990817
43.45966718675291
43.085657306669816
41.79420493167702
44.708874044006315
50.8389410509769
55.08075663088081
56.5879815278355
57.21071789436555
57.46997210297026
57.24246591202508
56.82329621465827
56.446018193237464
56.04237030035833
55.623691542944506
55.21112946023258
54.7591188081433
54.336802833077435
53.916948983696166
53.609257841282954
53.38767674411762
53.261186066230984
53.25399406543787
53.27253098046556
53.35226941260145
53.48643367379613
54.02298724535672
55.80946261699135
62.22858194163213
52.564346540300356
62.029591656830426
5.0034753099361495
14.503915076094216
25.184647221072353
31.820518676932437
35.09417416577054
36.50113892729287
37.52016235733683
38.69768802673332
40.10337183042205
41.58946117641702
41.452498228998365
48.93495473472325
55.08075663088081
56.129683709913145
55.88984417997441
56.16047158013251
56.03524240407831
55.74230974272805
55.443386092219306
55.180767095504486
54.97424751834199
54.76429558858233
54.59690781003016
54.44264832387317
54.303473906726005
54.18860399448212
54.14759683538348
54.191958616016535
54.391913256326106
54.806272692149655
55.50177021108819
56.26458462284313
56.931774096217346
57.74397532880761
61.38645155640832
55.016411086635024
60.262037748291235
17.909005809105423
21.134372175015258
18.011849859951525
8.09972796927245
19.811448671479013
31.097841305236585
37.4604792581838
36.702151177576184
35.148330567344885
34.31649627199191
34.214256901744875
34.42022570647222
34.5794459214808
34.955178538151074
47.995042734997995
50.54600782527574
51.38068462413653
51.349717689362365
51.3935002876048
51.379334843013204
51.39387924008694
51.398442106801504
51.42237670850145
51.44491773527929
51.52869676518286
51.62520019586129
51.77098823408154
51.98043961259431
52.277388628971316
52.699314758355015
53.276957445805266
54.09800187079403
55.34987471534436
57.498873696509705
60.07846707315319
60.412561970996926
60.694903408251456
55.482536072386644
55.22715674098966
50.02964021201373
)
;

boundaryField
{
    ".*"
    {
        type            zeroGradient;
    }
}


// ************************************************************************* //
