// -*- C++ -*-
// File generated by PyFoam - sorry for the ugliness

FoamFile
{
 version 2.0;
 format ascii;
 class volScalarField;
 location "700";
 object T;
}

dimensions [ 0 0 0 1 0 0 0 ];

internalField nonuniform List<scalar> 459
(
  302.623
  302.318
  302.308
  302.306
  302.304
  302.303
  302.301
  302.298
  302.296
  302.292
  302.287
  302.279
  302.27
  302.262
  302.257
  302.37
  302.33
  302.326
  302.325
  302.324
  302.324
  302.324
  302.323
  302.323
  302.323
  302.322
  302.321
  302.32
  302.319
  302.318
  302.317
  302.315
  302.314
  302.328
  302.843
  302.35
  302.328
  302.332
  302.337
  302.34
  302.343
  302.344
  302.343
  302.339
  302.327
  302.309
  302.286
  302.263
  302.247
  302.243
  302.247
  302.334
  302.324
  302.32
  302.317
  302.315
  302.311
  302.307
  302.302
  302.297
  302.293
  302.288
  302.283
  302.279
  302.275
  302.272
  302.271
  302.272
  302.274
  302.307
  303.068
  302.396
  302.355
  302.368
  302.383
  302.397
  302.408
  302.417
  302.42
  302.416
  302.398
  302.365
  302.322
  302.278
  302.249
  302.245
  302.257
  302.315
  302.319
  302.323
  302.325
  302.324
  302.322
  302.315
  302.307
  302.3
  302.292
  302.285
  302.278
  302.271
  302.264
  302.259
  302.256
  302.255
  302.258
  302.297
  303.287
  302.456
  302.383
  302.401
  302.428
  302.455
  302.48
  302.5
  302.511
  302.509
  302.485
  302.435
  302.367
  302.296
  302.249
  302.242
  302.263
  302.294
  302.308
  302.325
  302.336
  302.341
  302.342
  302.341
  302.34
  302.339
  302.338
  302.336
  302.334
  302.33
  302.326
  302.321
  302.315
  302.289
  302.268
  302.257
  302.296
  303.492
  302.536
  302.413
  302.426
  302.46
  302.499
  302.537
  302.572
  302.595
  302.599
  302.572
  302.507
  302.413
  302.313
  302.246
  302.238
  302.267
  302.301
  302.326
  302.345
  302.357
  302.362
  302.363
  302.363
  302.363
  302.362
  302.361
  302.36
  302.356
  302.351
  302.344
  302.335
  302.325
  302.305
  302.281
  302.262
  302.286
  302.358
  302.385
  302.395
  303.669
  302.639
  302.469
  302.448
  302.478
  302.519
  302.563
  302.609
  302.649
  302.666
  302.638
  302.561
  302.447
  302.322
  302.241
  302.233
  302.27
  302.314
  302.347
  302.369
  302.379
  302.383
  302.384
  302.384
  302.384
  302.384
  302.383
  302.381
  302.376
  302.369
  302.358
  302.346
  302.333
  302.315
  302.292
  302.27
  302.277
  302.308
  302.319
  302.357
  303.811
  302.813
  302.631
  302.545
  302.528
  302.544
  302.577
  302.619
  302.676
  302.702
  302.668
  302.58
  302.453
  302.316
  302.232
  302.229
  302.274
  302.331
  302.371
  302.392
  302.4
  302.403
  302.405
  302.405
  302.406
  302.405
  302.404
  302.401
  302.395
  302.386
  302.373
  302.357
  302.341
  302.323
  302.302
  302.282
  302.278
  302.287
  302.297
  302.329
  304.043
  303.306
  303.1
  302.915
  302.784
  302.715
  302.694
  302.704
  302.738
  302.733
  302.67
  302.56
  302.42
  302.277
  302.207
  302.223
  302.285
  302.355
  302.397
  302.413
  302.419
  302.422
  302.424
  302.425
  302.426
  302.426
  302.425
  302.422
  302.416
  302.408
  302.397
  302.379
  302.361
  302.345
  302.33
  302.316
  302.316
  302.336
  302.367
  302.543
  304.369
  304.048
  303.736
  303.462
  303.241
  303.081
  302.976
  302.914
  302.853
  302.744
  302.611
  302.468
  302.323
  302.192
  302.168
  302.224
  302.309
  302.387
  302.419
  302.432
  302.437
  302.44
  302.443
  302.445
  302.447
  302.448
  302.448
  302.447
  302.446
  302.444
  302.444
  302.447
  302.454
  302.468
  302.492
  302.528
  302.574
  302.618
  302.647
  302.721
  295.619
  299.542
  301.29
  301.92
  302.176
  302.272
  302.285
  302.278
  302.246
  302.195
  302.128
  302.062
  302.144
  302.255
  302.358
  302.416
  302.44
  302.45
  302.455
  302.458
  302.462
  302.465
  302.468
  302.472
  302.475
  302.479
  302.482
  302.487
  302.492
  302.497
  302.506
  302.519
  302.54
  302.566
  302.596
  302.62
  302.635
  302.669
  296.436
  299.492
  300.761
  301.397
  301.721
  301.869
  301.926
  301.953
  301.967
  301.97
  301.96
  301.96
  302.197
  302.358
  302.418
  302.448
  302.463
  302.47
  302.474
  302.477
  302.48
  302.484
  302.487
  302.491
  302.495
  302.499
  302.503
  302.508
  302.513
  302.519
  302.526
  302.537
  302.551
  302.569
  302.588
  302.602
  302.618
  302.643
  298.461
  298.397
  298.392
  300.297
  301.002
  301.387
  301.663
  301.748
  301.789
  301.81
  301.83
  301.848
  301.866
  301.918
  302.392
  302.464
  302.479
  302.494
  302.501
  302.505
  302.509
  302.512
  302.515
  302.517
  302.52
  302.522
  302.524
  302.526
  302.528
  302.53
  302.532
  302.535
  302.538
  302.544
  302.551
  302.564
  302.575
  302.579
  302.631
  302.736
)
;

boundaryField
{
  floor
  {
    type wallHeatTransfer;
    Tinf uniform 305.2;
    alphaWall uniform 0.24;
    value nonuniform List<scalar> 29
(
  302.581
  302.92
  302.815
  302.824
  302.839
  302.854
  302.87
  302.886
  302.903
  302.918
  302.933
  302.947
  302.96
  302.973
  302.985
  302.997
  303.01
  303.025
  303.033
  303.073
  303.073
  302.941
  302.869
  302.827
  302.581
  302.92
  302.753
  302.676
  302.609
)
;
  }
  ceiling
  {
    type wallHeatTransfer;
    Tinf uniform 303.2;
    alphaWall uniform 0.24;
    value nonuniform List<scalar> 43
(
  298.754
  298.681
  298.666
  300.455
  301.128
  301.497
  301.763
  301.849
  301.895
  301.924
  301.949
  301.973
  301.999
  302.058
  302.5
  302.561
  302.571
  302.586
  302.593
  302.598
  302.602
  302.605
  302.607
  302.61
  302.611
  302.612
  302.613
  302.613
  302.612
  302.612
  302.611
  302.61
  302.61
  302.612
  302.616
  302.624
  302.633
  302.64
  302.69
  302.78
  304.315
  304.014
  296.803
)
;
  }
  sWall
  {
    type wallHeatTransfer;
    Tinf uniform 315.2;
    alphaWall uniform 0.36;
    value uniform 299.972;
  }
  nWall
  {
    type wallHeatTransfer;
    Tinf uniform 307.2;
    alphaWall uniform 0.36;
    value nonuniform List<scalar> 6
(
  303.239
  303.182
  303.103
  303.287
  303.248
  303.347
)
;
  }
  sideWalls
  {
    type empty;
  }
  glass1
  {
    type wallHeatTransfer;
    Tinf uniform 315.2;
    alphaWall uniform 4.3;
    value nonuniform List<scalar> 9
(
  311.811
  311.046
  310.532
  310.114
  309.763
  309.454
  309.186
  309.232
  309.451
)
;
  }
  glass2
  {
    type wallHeatTransfer;
    Tinf uniform 307.2;
    alphaWall uniform 4.3;
    value nonuniform List<scalar> 2
(
  305.379
  305.51
)
;
  }
  sun
  {
    type wallHeatTransfer;
    Tinf uniform 305.2;
    alphaWall uniform 0.24;
    value nonuniform List<scalar> 14
(
  302.954
  302.674
  302.665
  302.654
  302.645
  302.637
  302.63
  302.623
  302.616
  302.609
  302.601
  302.594
  302.587
  302.582
)
;
  }
  heatsource1
  {
    type fixedGradient;
    gradient uniform 0;
  }
  heatsource2
  {
    type fixedGradient;
    gradient uniform 0;
  }
  Table_master
  {
    type zeroGradient;
  }
  Table_slave
  {
    type zeroGradient;
  }
  inlet
  {
    type fixedValue;
    value uniform 290.15;
  }
  outlet
  {
    type zeroGradient;
  }
} 	// ************************************************************************* //

