/*--------------------------------*- C++ -*----------------------------------*=========                 |
  \      /  F ield         | OpenFOAM: The Open Source CFD Toolbox
   \    /   O peration     | Website:  https://openfoam.org
    \  /    A nd           | Version:  6
     \/     M anipulation  |
\*---------------------------------------------------------------------------*/
FoamFile
{
    version     2.0;
    format      ascii;
    class       volScalarField;
    location    "1500";
    object      PMV;
}
// * * * * * * * * * * * * * * * * * * * * * * * * * * * * * * * * * * * * * //

dimensions      [0 0 0 0 0 0 0];

internalField   nonuniform List<scalar> 
459
(
1.6636018800379997
1.4483424582835922
1.4230713880662464
1.4002048006941452
1.3846467871104235
1.3749478508494826
1.3722382183706632
1.3753679227554376
1.3840991077916418
1.4000669560366121
1.423693355655123
1.4575540208280504
1.502229925577771
1.5459713326404918
1.5493151249234158
1.6094875606694117
1.5970730596970106
1.5927754417196758
1.5942079974766392
1.5965955539037306
1.5989830645005172
1.5971199721046767
1.5926775157200876
1.5922843420099217
1.5928061504676558
1.594331859462724
1.5958226104815738
1.5978529061997517
1.6007881817760834
1.6056359616039995
1.6150853260666802
1.6219007876618514
1.6252425882649677
1.6362221143979476
1.6269949457001989
1.4697220236721102
1.4619341585668888
1.4411401035571283
1.428315331795898
1.4211428423407986
1.4188066227609037
1.4206391275519532
1.424841162170807
1.4326676033220707
1.4461918950653123
1.468445254045969
1.5005672170619826
1.5383280779922144
1.5383280779922144
1.537372641991945
1.5345062954332842
1.5716958538766213
1.58895521317142
1.5851348692157536
1.586262820983702
1.5800124088510736
1.5754303857063297
1.5736386037801608
1.5742631619812668
1.574936277996987
1.5752749910659716
1.5754547689466232
1.5757134377313067
1.5761247713305675
1.5772059118744
1.5792601797297832
1.586472547465024
1.6037579472591375
1.6085326438568832
1.5992487071267993
1.6694767003988165
1.4721067086175657
1.497192303229454
1.487575033485094
1.4849165115617846
1.4842925958936322
1.4857452501320685
1.487122982729851
1.483403586151497
1.4764805613540377
1.4726580112773349
1.4770085267352553
1.4931042441088898
1.521189371932662
1.535939475929194
1.5378503607974054
1.5383280779922144
1.4836225190051504
1.5259917804311007
1.539455799906905
1.5481524074088968
1.557209114330741
1.5636632380812208
1.5665447860485098
1.5736367341941075
1.5783636931828737
1.5806831422875702
1.5811722336996932
1.581589856558177
1.5809810387781436
1.5794813044980958
1.574606033549476
1.5759879858380197
1.5932055472687938
1.585333119566635
1.5384287026775665
1.7457843217397802
1.4782167522782539
1.5249506306282634
1.5346082908837084
1.5516709051774047
1.5672485832369139
1.5797242404052263
1.577334237990548
1.5542728803856705
1.519615946537992
1.4884281549971579
1.4707089965278752
1.4711302022553776
1.4888817608997997
1.5190046389699192
1.5388057935746646
1.5286453924276526
1.4878001008657544
1.4839918284068585
1.5110566442239404
1.5368050269877704
1.5568478015226461
1.574076851527762
1.5860272589723647
1.589787360499866
1.5876669680417492
1.5860027725987662
1.5863514050987872
1.5869481580539213
1.5895429072228604
1.5955942870231883
1.6070941147824176
1.6288152562241582
1.6226932226148265
1.6076698479346843
1.5650648287135625
1.4942340881019005
1.8358897437538917
1.4984721512288925
1.5514978986940047
1.5796400237172619
1.625712974168538
1.6784518585994095
1.7063696384931013
1.6688202861975059
1.6003713676075764
1.5313407880113594
1.4800101960344143
1.4500161532493012
1.4433121724994393
1.457150182607814
1.4842241867018837
1.5114115179034884
1.5205636044537192
1.5176505703679726
1.5254010626009653
1.5492373961894252
1.5780821141146553
1.6038678928975814
1.6249203943512425
1.6390861661134348
1.646723283143673
1.6494833062143697
1.6491419715338602
1.6479320244935123
1.6461353022408038
1.643809619956221
1.6425203487183262
1.6434114001414615
1.6452523497361013
1.632030526585628
1.6057408106672877
1.5470859673866117
1.5406282707255872
1.6681998505397815
1.654532074964953
1.4921435760894477
1.9255600643573239
1.5414862720717142
1.6039325181015642
1.6322472489370528
1.7001680210569101
1.7273568130129193
1.7288014474209674
1.6510449936410414
1.5751473063016754
1.5043962912317046
1.449403626289552
1.4191235557311468
1.4150861420297776
1.4344070851984285
1.4693379719154986
1.5089949989716775
1.540991871533966
1.5636108121229948
1.5874670236328798
1.6161717664305415
1.6324032671922484
1.6462459785288828
1.657223465455574
1.6658137748641424
1.6724946523675117
1.6777436180367415
1.682038030927523
1.6844237392666312
1.6853780072028137
1.6839466019943732
1.6806065796101666
1.675357756967007
1.6666419715177943
1.6415038889506846
1.6078837011680398
1.5462029408269635
1.543915799648991
1.5585659626536024
1.5571622142711767
1.5688229285837776
2.0143675945003237
1.6365416515143425
1.7551795875769165
1.727281957394325
1.7238529342554068
1.7028009767996093
1.6542168112961484
1.5856520191297618
1.5089004689985857
1.4400254145237477
1.3933620784787668
1.376823718742862
1.389631949155239
1.4275112487539934
1.4810188761666214
1.5409115578198949
1.5856124184889577
1.6085326438568832
1.6295390486550319
1.6476778862571382
1.6629504141172675
1.674880578259273
1.6844237392666312
1.6911034288891198
1.6963514498334122
1.7001680210569101
1.7025533042606884
1.7035074015679994
1.7025533042606884
1.6996909575875905
1.6944431100113557
1.6872865165821627
1.6791751086274993
1.6668886280374697
1.6271688103138664
1.5702488681248847
1.5477104245620932
1.536924176145133
1.5112270814134825
1.595531438452562
2.1467256540455213
1.9547460217336257
1.9104086661657713
1.8104467987088766
1.7547513200918121
1.6792391435071556
1.5810224777549586
1.4772994569365592
1.389416605937412
1.3314668426599578
1.3128779718391654
1.3319160611140657
1.3823147402242104
1.4539070926565294
1.5394732522599972
1.5875225976611236
1.6195137291480535
1.645768671878068
1.6658137748641424
1.681083732237156
1.6930118315417297
1.702076252179611
1.7082777504365
1.713047868241047
1.715909827091131
1.71781775276384
1.7182947282997598
1.7173407748727694
1.7154328398019372
1.7125708669215638
1.7073236990772036
1.6996909575875905
1.6915805329058036
1.6825151769866609
1.6720174607332332
1.6610414647744336
1.6411054378164307
1.6293248802211475
1.5688463097521461
1.4840630439166298
2.3434055840339445
2.2107635176847786
2.044696717959735
1.8661392192800583
1.6756216935660182
1.4689228640322225
1.2992306183457278
1.1900011563033244
1.148059566008126
1.1669094457216365
1.2329397704649656
1.3322577054367248
1.4483622997450876
1.539283507543014
1.5918203954542884
1.6362221143979476
1.6648593297395688
1.6849008743368197
1.6992138918471005
1.7097088101402014
1.71781775276384
1.72023942785369
1.7188376581808198
1.7168452152024627
1.7138195808013452
1.7101866048930912
1.7050999647808185
1.6983345152695315
1.6905791146907585
1.6808518851200198
1.6697300681561875
1.6574253261005358
1.6462371516609684
1.6319247869620779
1.6162076928461226
1.6023334905086735
1.5926389013100697
1.5873989445094885
1.5768250614388495
1.5462763700315796
-2.9691386020326007
-1.7791188010945447
-1.110904076473244
-0.3859115188287235
0.16131275679409263
0.5886946106942839
0.9353786282844623
1.206970555212287
1.369605821894861
1.4934158513642126
1.5717627702316235
1.6233329995681753
1.6515776883245554
1.666918487570492
1.6786141745254621
1.6868628196540245
1.6917891949519026
1.694071478751894
1.6942124589164655
1.6934719995025562
1.6908305729992463
1.6875514360618473
1.683940007566776
1.6789027112220247
1.673400687476099
1.6680658932821737
1.6622011808756152
1.6571504401024375
1.6533182715834616
1.6506546286272448
1.6489646253841528
1.6479131045605417
1.647033101632985
1.649057414120532
1.6595852533459174
1.6945651602458467
1.76588900173798
1.6087604558831738
-2.454907561445627
-0.9919708861545438
0.03931514166450111
0.5637450549009285
0.8941768104312422
1.0955781075637836
1.2494615719372946
1.3687310726710293
1.4610331434324606
1.529568917538388
1.5773736800408054
1.6101353906509563
1.6336650620624504
1.649843819663556
1.6609395382103451
1.6680975526152653
1.6728063827305912
1.675241847406179
1.6767328973388824
1.6775234693390344
1.6774899058465742
1.676606785335631
1.675367153994725
1.6733089889825985
1.6714997974536387
1.6696098169780917
1.6679038991066293
1.6673527286057803
1.6680653391374898
1.6709619221094152
1.6783887768854966
1.6897806014964025
1.7017485289499
1.7118805325082629
1.7237589976237477
1.7617240292074836
1.6965037337363758
1.6474131499274516
-0.8737996348150711
-1.0130680332963242
-0.8923814805179205
0.35270073610503094
0.8688561276307445
1.0874149690162633
1.2221425286857666
1.3262931171414414
1.4101786437129147
1.4790016893939477
1.534302359564959
1.5766545235723362
1.6075535881244807
1.62893501427193
1.642210526646179
1.649654369499557
1.6529404821976903
1.653931983396272
1.6538692077405204
1.6532798400079287
1.6529318985871646
1.6526421009447436
1.6527198173266922
1.653120585470719
1.6533164623719385
1.6543389485114683
1.6557987422921896
1.6574355137025152
1.6606473813299596
1.664970112895863
1.6725241469800147
1.6840902563706757
1.7055376566416092
1.743919740514279
1.7721772293431672
1.7783740192187236
1.7451226316986328
1.7028537218085418
1.6613182375773576
1.6663915334518393
)
;

boundaryField
{
    ".*"
    {
        type            zeroGradient;
    }
}


// ************************************************************************* //
