/*--------------------------------*- C++ -*----------------------------------*\
  =========                 |
  \\      /  F ield         | OpenFOAM: The Open Source CFD Toolbox
   \\    /   O peration     | Website:  https://openfoam.org
    \\  /    A nd           | Version:  6
     \\/     M anipulation  |
\*---------------------------------------------------------------------------*/
FoamFile
{
    version     2.0;
    format      ascii;
    class       volScalarField;
    location    "100";
    object      alphat;
}
// * * * * * * * * * * * * * * * * * * * * * * * * * * * * * * * * * * * * * //

dimensions      [1 -1 -1 0 0 0 0];

internalField   nonuniform List<scalar> 
459
(
0.00138053
0.00152047
0.00156069
0.00164166
0.00171846
0.00179337
0.00187169
0.00193209
0.00196602
0.00196657
0.00192925
0.00185006
0.00172208
0.00152491
0.00125347
0.000683679
0.000821242
0.000945395
0.000977843
0.000965393
0.000935803
0.000884316
0.000829311
0.000778879
0.000734258
0.000695021
0.000660503
0.000629877
0.000602181
0.000576888
0.000552519
0.000526843
0.000499441
0.000451811
0.00184693
0.00470715
0.00461003
0.00539685
0.0061888
0.00693679
0.00748221
0.00797473
0.00839347
0.00870137
0.00886896
0.00886651
0.0086499
0.00808843
0.00661055
0.00152299
0.00106415
0.000690859
0.00162498
0.00237602
0.00296248
0.00331377
0.00331782
0.00251434
0.00213632
0.00187603
0.00167801
0.00151992
0.0013895
0.00128113
0.00119125
0.00109496
0.000999562
0.000913643
0.000954131
0.000517231
0.0022283
0.00640282
0.00575337
0.00701527
0.0076696
0.00816415
0.00853241
0.00892136
0.00933543
0.00974166
0.0100995
0.0103556
0.0104325
0.0102174
0.00942929
0.00698123
0.00159985
0.00123733
0.00201948
0.00285408
0.00365307
0.00421681
0.00410647
0.00122082
0.00107847
0.00096215
0.000867305
0.000789121
0.000723609
0.000667779
0.000619987
0.000581485
0.00062841
0.000729645
0.00105922
0.000561796
0.00258956
0.00803981
0.00582806
0.00732871
0.00776132
0.00795035
0.00814037
0.00844597
0.00885091
0.00931996
0.00980293
0.0102123
0.0104462
0.0105031
0.0102868
0.00926881
0.00554904
0.00186468
0.00235275
0.0032363
0.00425628
0.00515096
0.00571091
0.00532922
0.0013471
0.00121453
0.00111549
0.00103621
0.000970002
0.000910905
0.000854119
0.000795684
0.000730186
0.000680878
0.000708157
0.00116834
0.000599503
0.00295694
0.0101281
0.00640602
0.00720568
0.00765583
0.00765773
0.00776255
0.00801546
0.00841144
0.00891327
0.00943798
0.00986686
0.0101176
0.010186
0.0101071
0.0098031
0.00887271
0.00782057
0.00760406
0.00774193
0.00796006
0.00809324
0.00804609
0.00763459
0.00620049
0.00546334
0.00501317
0.00466487
0.00428636
0.00384282
0.00332549
0.00273775
0.00210074
0.00147734
0.00107314
0.00117713
0.000715958
0.000713105
0.000861042
0.000956448
0.00334743
0.0124266
0.00867561
0.0075599
0.00792451
0.0078086
0.00781192
0.00793802
0.0082745
0.00879608
0.00936749
0.00981705
0.0100299
0.0100118
0.00988334
0.00979588
0.00980505
0.00991155
0.0100952
0.0101849
0.0100979
0.00984252
0.00944672
0.00891003
0.00817878
0.00755643
0.00704174
0.00656827
0.00605516
0.00547249
0.00479758
0.00402105
0.00316149
0.00228728
0.00161814
0.00130022
0.000925207
0.000822703
0.00122293
0.000993637
0.00369152
0.0139701
0.0118373
0.00969435
0.00907337
0.00844556
0.00806078
0.00804799
0.00840656
0.00901828
0.0096697
0.0101363
0.0102904
0.0101747
0.0100011
0.0100484
0.0104375
0.0109446
0.0112451
0.0112095
0.0108798
0.0103585
0.0097312
0.00905063
0.00835453
0.00773716
0.0072009
0.00670788
0.00622625
0.00572583
0.00513162
0.004434
0.00365164
0.00283282
0.00215048
0.00166712
0.00129667
0.00120146
0.0012478
0.00107969
0.00374765
0.012007
0.0109551
0.00980977
0.00877237
0.00804025
0.00780599
0.00809158
0.00878289
0.00965024
0.0104034
0.0108088
0.0107979
0.0105311
0.0103545
0.0105744
0.0110802
0.0114433
0.01142
0.0110439
0.0104116
0.00962993
0.00878839
0.00796378
0.00722765
0.00661644
0.00610079
0.00564426
0.00523559
0.00487859
0.00454714
0.00409258
0.0035704
0.0029874
0.00247794
0.00225038
0.00227076
0.00281994
0.00388953
0.00174604
0.00364009
0.00428739
0.00465774
0.00479269
0.00517428
0.00597837
0.00716012
0.00857176
0.00997524
0.0110807
0.0116417
0.0115954
0.0111281
0.0107251
0.0106682
0.0107913
0.0108651
0.0107107
0.0102678
0.00955964
0.0086715
0.00770784
0.00677725
0.00596851
0.00531576
0.00478995
0.00433814
0.00392454
0.00353448
0.00316515
0.0028359
0.00257563
0.00237431
0.00225622
0.00223937
0.00231332
0.00238801
0.00237243
0.00224156
0.001631
0.00158867
0.00445947
0.00838304
0.0108341
0.0123429
0.0131609
0.0133707
0.0130587
0.0123783
0.011395
0.0104961
0.00997577
0.00974758
0.00952633
0.00915169
0.00857921
0.00781887
0.00692948
0.00599553
0.00512272
0.00439799
0.00384551
0.00343292
0.00311499
0.00286011
0.00265443
0.00249409
0.00238334
0.00231372
0.0022747
0.00226595
0.00228911
0.00233583
0.00237467
0.00234927
0.00222288
0.00199985
0.00133106
0.00262051
0.00891655
0.0115815
0.0121994
0.012199
0.0117627
0.0109925
0.0100665
0.00916318
0.00834697
0.00773085
0.00729977
0.00689427
0.00640138
0.00579884
0.00510754
0.00438371
0.00371116
0.00316164
0.0027641
0.00249765
0.00232416
0.00221352
0.00214773
0.00211439
0.00210712
0.0021239
0.00215831
0.0022088
0.00227561
0.00235984
0.00245913
0.00256029
0.00263966
0.00265754
0.00272047
0.00256949
0.00134665
0.00231179
0.0024558
0.00255926
0.00273669
0.00258175
0.00246115
0.00234918
0.00219656
0.00200505
0.00178923
0.00156853
0.0013705
0.00121205
0.00109192
0.00100052
0.000928754
0.000871266
0.000826402
0.000794624
0.000776131
0.0007695
0.000772246
0.000781929
0.000796809
0.000815885
0.000838596
0.000864961
0.000895173
0.000929439
0.000968209
0.00101208
0.00106187
0.00111868
0.00118385
0.00125841
0.00135066
0.00139617
0.00137226
0.00128233
0.00118951
)
;

boundaryField
{
    floor
    {
        type            compressible::alphatWallFunction;
        Prt             0.85;
        value           nonuniform List<scalar> 
29
(
0.000177498
9.67616e-05
0.000116799
0.00013454
0.000139128
0.00013737
0.000133179
0.00012585
0.000117963
0.000110677
0.000104184
9.84348e-05
9.33449e-05
8.88019e-05
8.467e-05
8.08763e-05
7.72017e-05
7.33081e-05
6.91259e-05
6.17875e-05
6.17867e-05
7.18413e-05
7.85991e-05
8.42661e-05
0.000177496
9.67605e-05
9.78198e-05
0.000175266
0.000259375
)
;
    }
    ceiling
    {
        type            compressible::alphatWallFunction;
        Prt             0.85;
        value           nonuniform List<scalar> 
43
(
0.000317243
0.00033565
0.000348804
0.000371395
0.000351877
0.000336578
0.000322293
0.000302692
0.000277882
0.000249606
0.000220297
0.000193603
0.000171929
0.000155283
0.000142475
0.000132326
0.00012413
0.000117689
0.000113103
0.000110425
0.000109464
0.000109864
0.00011127
0.000113426
0.000116182
0.000119454
0.000123238
0.000127558
0.000132437
0.000137931
0.000144118
0.0001511
0.000159022
0.000168053
0.000178315
0.000190917
0.000197098
0.000193853
0.000181592
0.000168835
0.000483693
0.000562187
0.000356292
)
;
    }
    sWall
    {
        type            compressible::alphatWallFunction;
        Prt             0.85;
        value           uniform 0.000315981;
    }
    nWall
    {
        type            compressible::alphatWallFunction;
        Prt             0.85;
        value           nonuniform List<scalar> 6(0.000135918 0.000141163 0.000153231 0.000187907 0.000190028 0.000168496);
    }
    sideWalls
    {
        type            empty;
    }
    glass1
    {
        type            compressible::alphatWallFunction;
        Prt             0.85;
        value           nonuniform List<scalar> 9(0.000189882 0.000251269 0.000300334 0.000346075 0.000391971 0.000440151 0.00048218 0.000489146 0.000476337);
    }
    glass2
    {
        type            compressible::alphatWallFunction;
        Prt             0.85;
        value           nonuniform List<scalar> 2(0.000241956 0.000226842);
    }
    sun
    {
        type            compressible::alphatWallFunction;
        Prt             0.85;
        value           nonuniform List<scalar> 
14
(
0.000194814
0.000213684
0.000219075
0.000229884
0.00024008
0.000249979
0.000260279
0.000268191
0.000272624
0.000272696
0.000267821
0.000257443
0.000240566
0.000214294
)
;
    }
    heatsource1
    {
        type            compressible::alphatWallFunction;
        Prt             0.85;
        value           nonuniform List<scalar> 3(0.00010124 0.000122681 0.000136271);
    }
    heatsource2
    {
        type            compressible::alphatWallFunction;
        Prt             0.85;
        value           nonuniform List<scalar> 4(0.000214201 0.000151408 0.000151406 0.000224502);
    }
    Table_master
    {
        type            compressible::alphatWallFunction;
        Prt             0.85;
        value           nonuniform List<scalar> 9(0.000173147 0.000153419 0.000137074 0.000123574 0.000112314 0.000102774 9.45619e-05 8.74648e-05 8.16988e-05);
    }
    Table_slave
    {
        type            compressible::alphatWallFunction;
        Prt             0.85;
        value           nonuniform List<scalar> 9(0.000190429 0.000172281 0.000158574 0.000147502 0.000138181 0.000129798 0.000121681 0.000113262 0.000103736);
    }
    inlet
    {
        type            fixedValue;
        value           uniform 1.94e-05;
    }
    outlet
    {
        type            zeroGradient;
    }
}


// ************************************************************************* //
