/*--------------------------------*- C++ -*----------------------------------*\
  =========                 |
  \\      /  F ield         | OpenFOAM: The Open Source CFD Toolbox
   \\    /   O peration     | Website:  https://openfoam.org
    \\  /    A nd           | Version:  6
     \\/     M anipulation  |
\*---------------------------------------------------------------------------*/
FoamFile
{
    version     2.0;
    format      ascii;
    class       volScalarField;
    location    "100";
    object      epsilon;
}
// * * * * * * * * * * * * * * * * * * * * * * * * * * * * * * * * * * * * * //

dimensions      [0 2 -3 0 0 0 0];

internalField   nonuniform List<scalar> 
459
(
0.000590136
0.000786206
0.000850119
0.000989355
0.00113472
0.00128961
0.00146595
0.00161237
0.00169864
0.00169991
0.00160485
0.00141524
0.00114151
0.000792861
0.00044078
7.16006e-05
0.00012406
0.000189226
0.000209383
0.000201505
0.000183558
0.000154912
0.00012778
0.000105868
8.87051e-05
7.52396e-05
6.45852e-05
5.60191e-05
4.89568e-05
4.30504e-05
3.78288e-05
3.28032e-05
2.79533e-05
2.07047e-05
0.00141578
0.00194197
0.000741459
0.000732847
0.000784902
0.000871568
0.000998195
0.00112811
0.00122082
0.0012456
0.0011929
0.00107147
0.000903981
0.000710004
0.000575416
0.000789517
0.000269294
7.38984e-05
0.000177663
0.000209007
0.000204588
0.000185388
0.000164866
0.000159988
0.000131768
0.000105409
8.42445e-05
6.77642e-05
5.50114e-05
4.50516e-05
3.71138e-05
3.09954e-05
2.71973e-05
2.58492e-05
3.91339e-05
3.10586e-05
0.00249136
0.00449182
0.000890989
0.000706107
0.000770405
0.00090787
0.00109858
0.00128048
0.00139639
0.00142367
0.00136471
0.00123307
0.00105665
0.000873729
0.000731662
0.000681796
0.000915475
0.000424275
0.000361701
0.000309593
0.000262454
0.000220981
0.000198334
0.000407623
0.000281029
0.00019956
0.000146174
0.0001101
8.48917e-05
6.67194e-05
5.3396e-05
4.40568e-05
3.24968e-05
2.67236e-05
5.53125e-05
3.97989e-05
0.00391812
0.00908657
0.00136719
0.000737646
0.000798999
0.0010143
0.00131442
0.00154487
0.00165589
0.00166008
0.00157347
0.00140573
0.00120366
0.00100254
0.000840576
0.000753375
0.000770119
0.00145001
0.000882097
0.000577759
0.000416403
0.000319564
0.000255595
0.000226908
0.000548052
0.000401725
0.000311289
0.000249556
0.000204739
0.000169571
0.000139807
0.000113041
8.73662e-05
5.07129e-05
3.28086e-05
7.71072e-05
4.83691e-05
0.00584521
0.0160162
0.00265303
0.000936904
0.000941633
0.00134239
0.00177379
0.00198926
0.00204142
0.00198887
0.00184892
0.00163151
0.0013661
0.00109532
0.000863186
0.00069717
0.000611373
0.000596174
0.00052333
0.000445335
0.00037526
0.000312795
0.000258001
0.000215148
0.000203736
0.000184397
0.000166003
0.000148273
0.000131184
0.000114429
9.79016e-05
8.18512e-05
6.64588e-05
4.90416e-05
3.54584e-05
6.29517e-05
4.65176e-05
8.1575e-05
0.000143728
0.000196987
0.00849579
0.0237255
0.00594189
0.00191739
0.0017058
0.00242103
0.00268284
0.00270159
0.00261739
0.00246969
0.00224678
0.00194069
0.00157664
0.00120877
0.000896137
0.000673166
0.000546172
0.00049162
0.000456887
0.000414407
0.000360922
0.000303681
0.000249717
0.000205175
0.000176935
0.000160479
0.000148453
0.000136082
0.000122099
0.000106542
9.02609e-05
7.41792e-05
5.94045e-05
4.6672e-05
3.88747e-05
5.04606e-05
4.71828e-05
6.07205e-05
0.000266727
0.000220761
0.0114141
0.0282994
0.0121191
0.00606523
0.0051831
0.00469828
0.004204
0.00378508
0.00345114
0.00314468
0.00278845
0.00234474
0.00183923
0.00134336
0.000939858
0.000668853
0.000524294
0.000462866
0.000426809
0.000383229
0.00032879
0.000272759
0.000223401
0.000186136
0.000164173
0.000154034
0.000147847
0.000140885
0.000131662
0.00011915
0.000104502
8.90116e-05
7.3606e-05
6.01204e-05
5.44821e-05
6.15201e-05
7.37102e-05
0.000122345
0.000304435
0.000283167
0.0119716
0.02909
0.0171896
0.0123763
0.00944504
0.007334
0.00594193
0.00507483
0.00451182
0.00403746
0.00349092
0.00282776
0.00210424
0.00142564
0.000920692
0.000618278
0.000473597
0.000410003
0.000366193
0.000317422
0.000266279
0.000221112
0.000186952
0.000165427
0.000155598
0.000153705
0.000155308
0.000158171
0.000161789
0.000165612
0.000166942
0.000167331
0.000167491
0.000169787
0.000187719
0.00028108
0.000547603
0.00125525
0.00430021
0.00119989
0.011008
0.017934
0.0143608
0.011095
0.00880806
0.00745903
0.00670817
0.00625996
0.00584312
0.0052196
0.00429489
0.00320244
0.00212838
0.00120448
0.000700118
0.000473894
0.000370065
0.00031418
0.00027118
0.00023022
0.000194095
0.000166724
0.000149519
0.000141671
0.000141122
0.000145434
0.000152939
0.00016338
0.00017765
0.00019748
0.000226119
0.00026842
0.000335901
0.000444209
0.000614022
0.000862719
0.00116927
0.00145137
0.00163306
0.000979798
0.00330002
0.00609788
0.00823449
0.0088671
0.00887366
0.00830874
0.00710334
0.00530804
0.00336145
0.00202614
0.00117732
0.000682265
0.000433883
0.000312622
0.000248485
0.000207675
0.000176075
0.000150319
0.0001304
0.00011693
0.000109674
0.000107569
0.000109381
0.000114299
0.000122197
0.000133698
0.000150146
0.000173814
0.000207757
0.000256452
0.000326875
0.000427875
0.000565124
0.000727728
0.000871922
0.000927818
0.000847255
0.000532578
0.0037228
0.00931433
0.00881041
0.00704547
0.00577363
0.00456716
0.00339543
0.0023332
0.00145931
0.00087994
0.00053557
0.000344674
0.000242484
0.000185025
0.000149028
0.000123821
0.000105444
9.2794e-05
8.52458e-05
8.20386e-05
8.22455e-05
8.52029e-05
9.06673e-05
9.87283e-05
0.000109837
0.000124777
0.000144695
0.000171242
0.000207032
0.000256003
0.000323721
0.000416463
0.000536602
0.000674328
0.000788364
0.00091145
0.000722996
0.000551439
0.00266615
0.00319386
0.00361461
0.00452547
0.00383348
0.00333336
0.0029054
0.00237917
0.00181194
0.00128885
0.000868968
0.000579929
0.000401266
0.000293453
0.000225789
0.000180632
0.000149143
0.000127286
0.000113172
0.000105463
0.000102791
0.000103901
0.000107863
0.000114142
0.000122541
0.000133063
0.000146012
0.000161853
0.00018116
0.000204788
0.000233903
0.000270144
0.000315862
0.000374345
0.000449634
0.000555982
0.000614179
0.000583217
0.000475934
0.000380035
)
;

boundaryField
{
    floor
    {
        Cmu             0.09;
        kappa           0.41;
        E               9.8;
        type            epsilonWallFunction;
        value           nonuniform List<scalar> 
29
(
0.00044078
7.16006e-05
0.00012406
0.000189226
0.000209383
0.000201505
0.000183558
0.000154912
0.00012778
0.000105868
8.87051e-05
7.52396e-05
6.45852e-05
5.60191e-05
4.89568e-05
4.30504e-05
3.78288e-05
3.28032e-05
2.79533e-05
2.07047e-05
2.07047e-05
3.10586e-05
3.97989e-05
4.83691e-05
0.00044078
7.16006e-05
7.38984e-05
0.000424275
0.00145001
)
;
    }
    ceiling
    {
        Cmu             0.09;
        kappa           0.41;
        E               9.8;
        type            epsilonWallFunction;
        value           nonuniform List<scalar> 
43
(
0.00266615
0.00319386
0.00361461
0.00452547
0.00383348
0.00333336
0.0029054
0.00237917
0.00181194
0.00128885
0.000868968
0.000579929
0.000401266
0.000293453
0.000225789
0.000180632
0.000149143
0.000127286
0.000113172
0.000105463
0.000102791
0.000103901
0.000107863
0.000114142
0.000122541
0.000133063
0.000146012
0.000161853
0.00018116
0.000204788
0.000233903
0.000270144
0.000315862
0.000374345
0.000449634
0.000555982
0.000614179
0.000583217
0.000475934
0.000380035
0.011008
0.017934
0.0037228
)
;
    }
    sWall
    {
        Cmu             0.09;
        kappa           0.41;
        E               9.8;
        type            epsilonWallFunction;
        value           uniform 0.00266615;
    }
    nWall
    {
        Cmu             0.09;
        kappa           0.41;
        E               9.8;
        type            epsilonWallFunction;
        value           nonuniform List<scalar> 6(0.000196987 0.000220761 0.000283167 0.000532578 0.000551439 0.000380035);
    }
    sideWalls
    {
        type            empty;
    }
    glass1
    {
        Cmu             0.09;
        kappa           0.41;
        E               9.8;
        type            epsilonWallFunction;
        value           nonuniform List<scalar> 9(0.000590136 0.00141578 0.00249136 0.00391812 0.00584521 0.00849579 0.0114141 0.0119716 0.011008);
    }
    glass2
    {
        Cmu             0.09;
        kappa           0.41;
        E               9.8;
        type            epsilonWallFunction;
        value           nonuniform List<scalar> 2(0.00119989 0.000979798);
    }
    sun
    {
        Cmu             0.09;
        kappa           0.41;
        E               9.8;
        type            epsilonWallFunction;
        value           nonuniform List<scalar> 
14
(
0.000590136
0.000786206
0.000850119
0.000989355
0.00113472
0.00128961
0.00146595
0.00161237
0.00169864
0.00169991
0.00160485
0.00141524
0.00114151
0.000792861
)
;
    }
    heatsource1
    {
        Cmu             0.09;
        kappa           0.41;
        E               9.8;
        type            epsilonWallFunction;
        value           nonuniform List<scalar> 3(8.1575e-05 0.000143728 0.000196987);
    }
    heatsource2
    {
        Cmu             0.09;
        kappa           0.41;
        E               9.8;
        type            epsilonWallFunction;
        value           nonuniform List<scalar> 4(0.000789517 0.000269294 0.000269294 0.000915475);
    }
    Table_master
    {
        Cmu             0.09;
        kappa           0.41;
        E               9.8;
        type            epsilonWallFunction;
        value           nonuniform List<scalar> 9(0.000407623 0.000281029 0.00019956 0.000146174 0.0001101 8.48917e-05 6.67194e-05 5.3396e-05 4.40568e-05);
    }
    Table_slave
    {
        Cmu             0.09;
        kappa           0.41;
        E               9.8;
        type            epsilonWallFunction;
        value           nonuniform List<scalar> 9(0.000548052 0.000401725 0.000311289 0.000249556 0.000204739 0.000169571 0.000139807 0.000113041 8.73662e-05);
    }
    inlet
    {
        type            turbulentMixingLengthDissipationRateInlet;
        mixingLength    0.01;
        phi             phi;
        k               k;
        value           uniform 0.000101881;
    }
    outlet
    {
        type            zeroGradient;
    }
}


// ************************************************************************* //
