/*--------------------------------*- C++ -*----------------------------------*\
  =========                 |
  \\      /  F ield         | OpenFOAM: The Open Source CFD Toolbox
   \\    /   O peration     | Website:  https://openfoam.org
    \\  /    A nd           | Version:  6
     \\/     M anipulation  |
\*---------------------------------------------------------------------------*/
FoamFile
{
    version     2.0;
    format      ascii;
    class       volScalarField;
    location    "100";
    object      nut;
}
// * * * * * * * * * * * * * * * * * * * * * * * * * * * * * * * * * * * * * //

dimensions      [0 2 -1 0 0 0 0];

internalField   nonuniform List<scalar> 
459
(
0.00118589
0.00130489
0.00133934
0.00140879
0.00147466
0.00153892
0.00160609
0.00165787
0.00168692
0.00168733
0.00165526
0.00158731
0.00147752
0.00130841
0.00107564
0.000587084
0.000705116
0.000811662
0.000839534
0.000828868
0.000803487
0.000759301
0.000712092
0.000668807
0.000630512
0.000596838
0.000567218
0.00054094
0.000517179
0.000495484
0.000474584
0.000452566
0.000429074
0.000388233
0.00158753
0.00404039
0.00395662
0.00463189
0.00531157
0.00595345
0.00642139
0.0068437
0.00720246
0.007466
0.00760925
0.00760687
0.00742106
0.00693958
0.00567186
0.00130675
0.000913089
0.000593286
0.00139507
0.00203977
0.00254331
0.00284503
0.00284864
0.00215883
0.00183429
0.00161082
0.00144083
0.00130511
0.00119315
0.00110013
0.00102299
0.000940347
0.00085848
0.000784763
0.000819656
0.000444444
0.0019166
0.00549697
0.00493864
0.00602195
0.00658383
0.00700846
0.00732445
0.00765764
0.00801184
0.00835913
0.00866511
0.0088842
0.00895015
0.00876594
0.00809014
0.00598994
0.00137272
0.0010622
0.00173355
0.00245006
0.00313621
0.00362052
0.00352606
0.00104827
0.000926044
0.000826171
0.000744737
0.000677611
0.000621368
0.000573444
0.000532426
0.000499389
0.000539727
0.000626734
0.000909955
0.000482752
0.00222883
0.00690409
0.00500357
0.00629223
0.00666425
0.00682704
0.00699015
0.00725146
0.0075972
0.00799778
0.00841066
0.00876108
0.00896179
0.00901102
0.00882599
0.00795293
0.00476143
0.0016001
0.00201913
0.00277779
0.00365386
0.00442262
0.00490411
0.00457687
0.00115703
0.00104323
0.000958209
0.000890145
0.000833307
0.000782568
0.000733807
0.000683627
0.000627372
0.000584961
0.000608379
0.00100378
0.000515181
0.00254673
0.00870014
0.00550087
0.00618783
0.0065754
0.00657804
0.0066679
0.00688336
0.0072207
0.00764895
0.00809738
0.0084645
0.00867974
0.00873905
0.00867218
0.00841214
0.00761436
0.00671214
0.00652723
0.00664671
0.00683524
0.00695084
0.00691143
0.0065588
0.00532736
0.00469439
0.00430784
0.00400874
0.0036836
0.00330251
0.00285795
0.00235283
0.00180535
0.00126951
0.000922095
0.00101144
0.000615283
0.000613152
0.000740544
0.000822597
0.0028848
0.0106789
0.00745215
0.00649376
0.00680824
0.00670979
0.0067116
0.00681736
0.00710312
0.00754791
0.00803627
0.00842126
0.00860436
0.00859001
0.00848118
0.00840743
0.00841649
0.00850923
0.00866844
0.00874711
0.00867408
0.00845625
0.00811743
0.0076572
0.00702944
0.00649502
0.00605296
0.00564619
0.0052052
0.00470433
0.0041241
0.00345648
0.00271749
0.00196588
0.00139061
0.00111733
0.000795135
0.000707238
0.00105143
0.000854449
0.00318317
0.0120128
0.0101746
0.00833241
0.00779975
0.00725924
0.00692566
0.0069108
0.00721478
0.00773671
0.00829399
0.00869434
0.00882791
0.00873079
0.00858411
0.00862674
0.00896266
0.00939999
0.00965995
0.00963122
0.00934963
0.00890311
0.00836501
0.00778077
0.00718288
0.00665245
0.0061916
0.00576781
0.00535368
0.00492329
0.00441222
0.00381222
0.00313937
0.00243519
0.00184841
0.00143282
0.00111446
0.00103276
0.0010727
0.000928322
0.00323417
0.0103406
0.00943033
0.00844259
0.0075462
0.00691117
0.00670401
0.00694392
0.00753307
0.00827489
0.00892093
0.00927053
0.00926445
0.00903919
0.00889094
0.00908251
0.00951927
0.00983319
0.00981493
0.00949331
0.00895103
0.00828005
0.00755719
0.00684858
0.00621583
0.00569037
0.00524698
0.00485436
0.00450283
0.00419567
0.00391044
0.00351935
0.00307011
0.00256857
0.00213031
0.00193453
0.00195206
0.00242446
0.00334451
0.00150221
0.00314496
0.00370058
0.00401647
0.0041272
0.00444726
0.00512997
0.00613737
0.00734354
0.00854552
0.00949552
0.00998142
0.0099474
0.00955191
0.00921122
0.0091661
0.00927426
0.00933953
0.00920824
0.00882861
0.00822074
0.00745776
0.00662953
0.00582947
0.00513404
0.00457266
0.00412041
0.00373175
0.00337593
0.00304036
0.00272261
0.00243936
0.00221545
0.00204228
0.00194075
0.00192637
0.00199021
0.00205482
0.00204176
0.00192931
0.0014041
0.00132234
0.00373102
0.00707043
0.00919044
0.0105122
0.0112409
0.0114439
0.0111946
0.0106234
0.00978616
0.00901841
0.0085743
0.00838017
0.00819136
0.00787026
0.00737877
0.00672546
0.00596091
0.00515783
0.00440716
0.00378379
0.00330853
0.00295358
0.00268005
0.00246076
0.00228379
0.00214583
0.00205053
0.00199062
0.00195707
0.00194956
0.00196955
0.00200986
0.00204347
0.00202186
0.00191332
0.00172151
0.00114591
0.00219118
0.00752274
0.00984594
0.0104125
0.0104378
0.0100811
0.00943168
0.00864428
0.00787329
0.00717488
0.00664714
0.00627774
0.00592987
0.00550653
0.00498865
0.00439425
0.00377172
0.00319319
0.00272045
0.00237842
0.00214918
0.00199991
0.00190471
0.00184811
0.00181942
0.00181316
0.0018276
0.0018572
0.00190065
0.00195814
0.00203064
0.00211612
0.00220326
0.0022717
0.00228727
0.00234166
0.00221173
0.00115928
0.0019604
0.00208203
0.00216972
0.00233848
0.0022126
0.00211183
0.00201726
0.00188726
0.00172345
0.00153845
0.00134901
0.00117891
0.00104274
0.000939481
0.000860892
0.000799184
0.000749745
0.000711158
0.000683825
0.00066792
0.00066222
0.000664587
0.000672922
0.000685729
0.000702146
0.000721691
0.00074438
0.000770379
0.000799866
0.000833231
0.000870985
0.000913831
0.000962724
0.00101882
0.001083
0.00116243
0.00120166
0.00118113
0.00110375
0.001024
)
;

boundaryField
{
    floor
    {
        type            nutkWallFunction;
        Cmu             0.09;
        kappa           0.41;
        E               9.8;
        value           nonuniform List<scalar> 
29
(
0.000129602
7.07322e-05
8.53543e-05
9.83007e-05
0.000101652
0.00010037
9.73138e-05
9.19648e-05
8.62088e-05
8.0891e-05
7.61517e-05
7.19556e-05
6.82406e-05
6.49248e-05
6.19093e-05
5.91409e-05
5.64594e-05
5.36182e-05
5.05667e-05
4.5211e-05
4.52109e-05
5.25601e-05
5.75008e-05
6.16454e-05
0.000129602
7.07321e-05
7.15096e-05
0.00012802
0.000189331
)
;
    }
    ceiling
    {
        type            nutkWallFunction;
        Cmu             0.09;
        kappa           0.41;
        E               9.8;
        value           nonuniform List<scalar> 
43
(
0.000228903
0.000242119
0.000251597
0.000269874
0.000256406
0.000245542
0.000235287
0.000221095
0.000203056
0.000182451
0.000161066
0.000141573
0.00012574
0.000113576
0.000104215
9.67957e-05
9.08036e-05
8.60949e-05
8.27415e-05
8.07833e-05
8.00806e-05
8.03736e-05
8.14024e-05
8.29797e-05
8.49963e-05
8.73895e-05
9.01579e-05
9.33181e-05
9.68868e-05
0.000100906
0.000105431
0.000110539
0.000116334
0.000122941
0.00013045
0.000139673
0.000144202
0.000141833
0.000132865
0.000123546
0.000355165
0.000412421
0.000253677
)
;
    }
    sWall
    {
        type            nutkWallFunction;
        Cmu             0.09;
        kappa           0.41;
        E               9.8;
        value           uniform 0.000228967;
    }
    nWall
    {
        type            nutkWallFunction;
        Cmu             0.09;
        kappa           0.41;
        E               9.8;
        value           nonuniform List<scalar> 6(9.96207e-05 0.000103446 0.00011226 0.00013777 0.000139318 0.000123553);
    }
    sideWalls
    {
        type            empty;
    }
    glass1
    {
        type            nutkWallFunction;
        Cmu             0.09;
        kappa           0.41;
        E               9.8;
        value           nonuniform List<scalar> 9(0.000142511 0.000188186 0.000224641 0.000258603 0.000292663 0.000328398 0.000359577 0.000364886 0.000355632);
    }
    glass2
    {
        type            nutkWallFunction;
        Cmu             0.09;
        kappa           0.41;
        E               9.8;
        value           nonuniform List<scalar> 2(0.000178469 0.000167393);
    }
    sun
    {
        type            nutkWallFunction;
        Cmu             0.09;
        kappa           0.41;
        E               9.8;
        value           nonuniform List<scalar> 
14
(
0.000142367
0.000156016
0.000159941
0.000167823
0.000175259
0.000182476
0.000189986
0.000195752
0.000198979
0.000199024
0.000195463
0.000187892
0.000175585
0.000156429
)
;
    }
    heatsource1
    {
        type            nutkWallFunction;
        Cmu             0.09;
        kappa           0.41;
        E               9.8;
        value           nonuniform List<scalar> 3(7.39915e-05 8.96849e-05 9.96191e-05);
    }
    heatsource2
    {
        type            nutkWallFunction;
        Cmu             0.09;
        kappa           0.41;
        E               9.8;
        value           nonuniform List<scalar> 4(0.000156218 0.000110426 0.000110426 0.000163735);
    }
    Table_master
    {
        type            nutkWallFunction;
        Cmu             0.09;
        kappa           0.41;
        E               9.8;
        value           nonuniform List<scalar> 9(0.000126375 0.000111977 0.000100047 9.0195e-05 8.19771e-05 7.5016e-05 6.90237e-05 6.3846e-05 5.96403e-05);
    }
    Table_slave
    {
        type            nutkWallFunction;
        Cmu             0.09;
        kappa           0.41;
        E               9.8;
        value           nonuniform List<scalar> 9(0.000139024 0.000125783 0.000115782 0.000107703 0.000100901 9.47828e-05 8.8859e-05 8.27133e-05 7.5759e-05);
    }
    inlet
    {
        type            calculated;
        value           uniform 0.000100623;
    }
    outlet
    {
        type            calculated;
        value           nonuniform List<scalar> 2(0.0019604 0.00208203);
    }
}


// ************************************************************************* //
