/*--------------------------------*- C++ -*----------------------------------*\
  =========                 |
  \\      /  F ield         | OpenFOAM: The Open Source CFD Toolbox
   \\    /   O peration     | Website:  https://openfoam.org
    \\  /    A nd           | Version:  6
     \\/     M anipulation  |
\*---------------------------------------------------------------------------*/
FoamFile
{
    version     2.0;
    format      ascii;
    class       surfaceScalarField;
    location    "100";
    object      phi;
}
// * * * * * * * * * * * * * * * * * * * * * * * * * * * * * * * * * * * * * //

dimensions      [1 0 -1 0 0 0 0];

internalField   nonuniform List<scalar> 
852
(
-0.00312408
0.00318387
-0.00430117
0.00117705
-0.00514619
0.000844982
-0.00574698
0.000600757
-0.00606741
0.000320399
-0.00607943
1.19805e-05
-0.00576042
-0.000319047
-0.00512432
-0.000636134
-0.00424039
-0.000883971
-0.00321522
-0.00102521
-0.00216632
-0.00104894
-0.00121167
-0.000954682
-0.000468786
-0.00074291
-5.44548e-05
-0.000414356
-5.20905e-05
-0.000951336
0.000954689
-0.000650239
-0.000301142
0.000117172
-0.000767447
0.000819065
-0.000701922
0.00134769
-0.000528654
0.00171747
-0.000369802
0.00192656
-0.000209118
0.00202468
-9.81559e-05
0.00208071
-5.60635e-05
0.00212097
-4.0294e-05
0.00215266
-3.17417e-05
0.00217882
-2.62217e-05
0.00219681
-1.80537e-05
0.00219205
4.67568e-06
0.00212949
6.24619e-05
0.00194956
0.000179823
0.00160538
0.000344055
0.00106456
0.000540667
0.00106855
-0.00222577
0.00557086
-0.00333323
0.00228448
-0.00418616
0.00169788
-0.00477709
0.00119164
-0.00509416
0.000637433
-0.00511245
3.0241e-05
-0.00481274
-0.000618801
-0.00422509
-0.00122382
-0.00343438
-0.00167473
-0.00254739
-0.00191223
-0.00166474
-0.00193163
-0.000873541
-0.00174591
-0.000237919
-0.00137856
0.000206397
-0.000858697
0.000493146
-0.00033886
0.000410239
8.28325e-05
0.00041016
0.000210686
0.000754053
0.00077126
-0.000861757
0.0011758
-0.00117202
0.00152454
-0.00105068
0.00182093
-0.000825066
0.00202999
-0.000578884
0.00207287
-0.000252009
0.00208051
-0.000105816
0.00208979
-6.53693e-05
0.00209779
-4.83168e-05
0.00210327
-3.72599e-05
0.00210725
-3.0236e-05
0.00210944
-2.02983e-05
0.00210364
1.04035e-05
0.00205138
0.00011463
0.00182935
0.000401748
0.00142855
0.000744727
0.000879347
0.00108971
0.00195917
-0.00154935
0.00736722
-0.00248218
0.00321727
-0.00323059
0.00244625
-0.00373415
0.00169517
-0.00399947
0.000902724
-0.00398351
1.4243e-05
-0.00365519
-0.000947161
-0.00307667
-0.00180238
-0.00235704
-0.0023944
-0.00159871
-0.0026706
-0.000875411
-0.00265497
-0.000240899
-0.00238046
0.000279704
-0.00189919
0.000687526
-0.00126654
0.000942965
-0.000594321
0.000903231
0.000122544
0.00131337
0.00177493
-0.00100941
0.00207108
-0.00115793
0.00208677
-0.00118774
0.00212561
-0.00108955
0.00220292
-0.000902393
0.00234922
-0.000725203
0.00209735
0.00199168
0.00192645
0.00187827
0.00184114
0.00181102
0.00179083
0.00180131
0.001916
0.00160401
0.000713621
0.00121267
0.00113592
0.000701626
0.0016006
0.00267866
-0.0010687
0.00875632
-0.00178563
0.00393417
-0.00227197
0.00293256
-0.00258764
0.00201081
-0.0027153
0.00103036
-0.00257614
-0.000124945
-0.00216298
-0.00136036
-0.00159039
-0.00237502
-0.000975681
-0.00300917
-0.000390929
-0.00325541
0.000128483
-0.00317443
0.000564831
-0.00281684
0.000933239
-0.00226763
0.00126799
-0.00160131
0.00157919
-0.00090554
0.00195711
-0.000255398
0.00305439
0.000216067
0.00325718
-0.000192491
0.00289377
-0.00064602
0.0026836
-0.00094778
0.00247673
-0.00098089
0.00229691
-0.000909752
0.00216078
-0.000766278
0.00198424
-0.00054868
0.00219701
-0.000212938
0.00228252
-8.56713e-05
0.00232141
-3.90546e-05
0.00232681
-5.55355e-06
0.00229199
3.46577e-05
0.0022056
8.62231e-05
0.00204949
0.000155945
0.00179139
0.000257914
0.00136695
0.000424249
0.00122997
0.000850524
0.000932433
0.00143333
0.000508009
0.00202487
0.00321055
-0.000736875
0.00987612
-0.00126006
0.00445732
-0.00134256
0.00301503
-0.00136043
0.00202865
-0.0012105
0.000880411
-0.000814888
-0.000520583
-0.000291198
-0.00188409
0.000217019
-0.00288329
0.000642441
-0.00343465
0.000971459
-0.00358448
0.00121252
-0.00341554
0.00139555
-0.00299991
0.00154944
-0.00242154
0.00170847
-0.00176035
0.001907
-0.00110408
0.00219768
-0.000546097
0.0026159
-0.000202167
0.00270265
-0.000279262
0.00258151
-0.000524898
0.00233917
-0.00070546
0.00209911
-0.000740849
0.00187951
-0.000690168
0.00169549
-0.000582273
0.00156783
-0.000421031
0.00158218
-0.00022731
0.0016044
-0.000107907
0.00161548
-5.01457e-05
0.00161625
-6.34273e-06
0.00160183
4.90532e-05
0.00156249
0.000125544
0.00148613
0.000232266
0.0013598
0.000384202
0.00118185
0.000602147
0.00104357
0.000988733
0.000908023
0.00156876
0.000611061
0.00232168
0.000655607
0.00316584
-0.00115737
0.00181268
-0.00162835
0.000470724
-0.0015757
-0.000628192
0.01094
-0.000960697
0.00478979
-0.000474464
0.00252877
6.94209e-06
0.00154722
0.000630315
0.000257018
0.00133665
-0.00122695
0.00187487
-0.00242236
0.00219845
-0.00320693
0.00234278
-0.00357905
0.00235202
-0.00359378
0.00226476
-0.00332833
0.00212965
-0.00286482
0.00199233
-0.00228425
0.00189037
-0.00165839
0.00185256
-0.00106627
0.00189476
-0.000588302
0.00199258
-0.000299986
0.00197917
-0.000265866
0.00182842
-0.000374163
0.00159662
-0.000473673
0.00136135
-0.000505592
0.00115044
-0.000479272
0.000979132
-0.000410983
0.000867654
-0.000309571
0.000835978
-0.000195653
0.000847419
-0.000119369
0.00087549
-7.82411e-05
0.000910992
-4.18721e-05
0.000944884
1.51285e-05
0.000968332
0.000102058
0.000978776
0.000221777
0.00097543
0.000387495
0.000960434
0.000617081
0.000986029
0.000963059
0.00111393
0.00144076
0.00135028
0.0020852
0.00192403
0.00259193
0.0022031
0.00153349
0.0017791
0.000894619
0.000267105
-0.000629229
0.0120532
-0.000424353
0.00458488
0.000925635
0.00117875
0.00208416
0.000388669
0.00311763
-0.00077647
0.00384897
-0.00195833
0.00420823
-0.00278168
0.00422801
-0.00322678
0.00398856
-0.00333967
0.00357745
-0.00318273
0.00307493
-0.00282585
0.00255515
-0.00234507
0.00207855
-0.00180765
0.00168213
-0.00126196
0.00139047
-0.000774598
0.0012096
-0.000407426
0.00110873
-0.000199121
0.00100061
-0.00015774
0.000839457
-0.000213023
0.000642727
-0.000276955
0.000445201
-0.000308081
0.000270035
-0.000304122
0.00013264
-0.000273607
4.83236e-05
-0.000225275
2.62414e-05
-0.000173595
4.81042e-05
-0.00014126
9.40247e-05
-0.000124194
0.000156774
-0.000104659
0.000235579
-6.37179e-05
0.000322252
1.53384e-05
0.000413699
0.000130278
0.000517972
0.000283162
0.000643686
0.000491299
0.000826868
0.000779798
0.00113359
0.00113394
0.00163292
0.00158574
0.00246189
0.00176283
0.00310446
0.000890779
0.00323919
0.000759766
0.00357789
0.00291228
0.00968303
0.00376582
0.00373131
0.00457734
0.000367196
0.00581914
-0.000853161
0.00666364
-0.00162102
0.00691284
-0.0022076
0.00667886
-0.00254779
0.00607768
-0.00262567
0.00523351
-0.00249557
0.00426604
-0.0022153
0.00327905
-0.00183889
0.00235914
-0.00142516
0.00156819
-0.00101668
0.000930417
-0.000624162
0.000469385
-0.00031354
0.000179766
-0.000117789
1.19454e-05
-3.1293e-05
-0.000113346
-3.24498e-05
-0.000246801
-7.95755e-05
-0.000393599
-0.000130169
-0.00053793
-0.000163765
-0.000663708
-0.000178361
-0.000759221
-0.000178115
-0.000815746
-0.000168776
-0.000831021
-0.000158349
-0.000817364
-0.000154951
-0.000786177
-0.000155418
-0.000739541
-0.000151337
-0.000669674
-0.00013363
-0.000565091
-8.92935e-05
-0.000436157
1.28906e-06
-0.000286177
0.000133122
-9.46029e-05
0.000299658
0.000164523
0.000520592
0.000520864
0.000777508
0.00106492
0.00104158
0.0017727
0.00105492
0.00205903
0.000604319
0.0011764
0.00164228
0.0050408
0.0102841
0.0140121
0.0130173
0.00136196
0.0123006
-0.000136532
0.0113018
-0.000622305
0.0100036
-0.00090947
0.00846117
-0.00100548
0.00680661
-0.000971178
0.00516288
-0.000851869
0.00362336
-0.000675789
0.0022565
-0.000472006
0.00111088
-0.000279521
0.000201991
-0.000107755
-0.000445782
2.36618e-05
-0.000835635
7.63433e-05
-0.00104082
8.74169e-05
-0.00114759
7.54805e-05
-0.00122426
4.42181e-05
-0.00130833
4.48809e-06
-0.0014053
-3.32104e-05
-0.00150489
-6.41917e-05
-0.00159653
-8.67368e-05
-0.00167322
-0.000101454
-0.00173181
-0.000110206
-0.00177504
-0.000115152
-0.00181322
-0.000116807
-0.00185775
-0.00011092
-0.00191959
-8.95472e-05
-0.00201138
-4.18809e-05
-0.00214042
3.97002e-05
-0.00230145
0.000162255
-0.00251136
0.000342975
-0.00282049
0.000608724
-0.00328694
0.000986973
-0.00400141
0.00149191
-0.0050426
0.0020827
-0.00653247
0.00254471
-0.008404
0.00247578
-0.00791118
0.00114938
-0.00255466
0.00446921
0.00316995
0.00335042
0.000982233
0.00343043
-0.000702301
0.00313453
-0.000613517
0.00246266
-0.000333544
0.00160006
-0.000108506
0.000665502
8.27686e-05
-0.000225014
0.000214822
-0.000959864
0.000262908
-0.00149261
0.000253277
-0.00183579
0.00023546
-0.00202032
0.000208222
-0.00211393
0.000169968
-0.00216167
0.000135162
-0.00219149
0.000105302
-0.00222478
7.75053e-05
-0.00227157
5.1274e-05
-0.00233326
2.8466e-05
-0.00240674
9.26917e-06
-0.00248637
-7.12267e-06
-0.00256716
-2.06811e-05
-0.00264696
-3.04324e-05
-0.00272676
-3.53771e-05
-0.00280968
-3.39073e-05
-0.00289709
-2.3539e-05
-0.00298661
-6.90072e-08
-0.00307149
4.29654e-05
-0.0031466
0.000114765
-0.00321455
0.00023016
-0.00327974
0.000408118
-0.00334548
0.00067441
-0.00341782
0.00105925
-0.00349248
0.00156651
-0.00351789
0.00210804
-0.00342735
0.00245411
-0.00307008
0.00211846
-0.00173754
-0.000183193
-0.00420971
-0.000697642
0.00395326
-0.000481972
0.00076669
-0.00133714
0.000152976
-0.0020294
7.88489e-05
-0.0025184
0.000155555
-0.00285863
0.000231811
-0.00306403
0.000288239
-0.00316756
0.000318421
-0.0032133
0.000308689
-0.0032256
0.000265619
-0.00320593
0.000215815
-0.00316703
0.000169332
-0.00312744
0.00013039
-0.0030946
0.000102325
-0.003072
8.27002e-05
-0.00306218
6.76912e-05
-0.00306571
5.47993e-05
-0.00308009
4.28364e-05
-0.00310194
3.11111e-05
-0.00312853
1.94565e-05
-0.00315847
9.24657e-06
-0.00319082
1.90777e-06
-0.00322401
-2.20288e-06
-0.00325599
-1.94018e-06
-0.00328358
4.02981e-06
-0.00330176
1.80822e-05
-0.0033027
4.38775e-05
-0.00327721
8.92482e-05
-0.00320931
0.000162219
-0.00307491
0.000273677
-0.0028416
0.000441062
-0.00247576
0.000693362
-0.00195935
0.00105005
-0.0012686
0.00141724
-0.000217856
0.00140332
0.00120669
0.00069388
0.00163961
-0.000616149
-0.00247925
-0.00778674
-0.011037
-0.00703182
-0.00624054
-0.00607143
-0.00597998
-0.00581399
-0.00557327
-0.00527721
-0.00495171
-0.00463643
-0.00436452
-0.0041426
-0.0039673
-0.00383103
-0.0037229
-0.00363443
-0.00356099
-0.00350045
-0.00345191
-0.00341514
-0.00339008
-0.0033753
-0.00336794
-0.00336477
-0.00336144
-0.00335223
-0.00332908
-0.00328024
-0.00318615
-0.00301922
-0.00274097
-0.00229552
-0.00159796
-0.000543962
0.000876849
0.00228341
0.00298035
0.0023673
)
;

boundaryField
{
    floor
    {
        type            calculated;
        value           nonuniform List<scalar> 
29
(
0
0
0
0
0
0
0
0
0
0
0
0
0
0
0
0
0
0
0
0
-4.15006e-06
-1.14398e-05
-1.80223e-05
-2.40491e-05
-2.3706e-06
-3.41206e-06
-1.0116e-05
-1.15029e-05
-1.03185e-05
)
;
    }
    ceiling
    {
        type            calculated;
        value           nonuniform List<scalar> 
43
(
-5.56686e-05
-5.3515e-05
-5.17767e-05
-2.44982e-05
-1.60511e-05
-1.25271e-05
-1.03714e-05
-8.85299e-06
-7.78147e-06
-7.04095e-06
-6.5607e-06
-6.27182e-06
-6.089e-06
-5.96041e-06
-5.86677e-06
-5.80319e-06
-5.76603e-06
-5.74681e-06
-5.73137e-06
-5.70586e-06
-5.66365e-06
-5.60545e-06
-5.53517e-06
-5.45638e-06
-5.3713e-06
-5.28101e-06
-5.18588e-06
-5.08548e-06
-4.97851e-06
-4.86289e-06
-4.73543e-06
-4.5916e-06
-4.42506e-06
-4.22685e-06
-3.98221e-06
-3.61226e-06
-3.27074e-06
-3.09838e-06
-3.12267e-06
-2.4362e-06
5.61242e-06
3.28218e-06
-8.56177e-05
)
;
    }
    sWall
    {
        type            calculated;
        value           uniform -0.000274326;
    }
    nWall
    {
        type            calculated;
        value           nonuniform List<scalar> 6(-5.29275e-05 -6.37861e-05 -7.16999e-05 -8.25036e-05 -9.0871e-05 -0.000109528);
    }
    sideWalls
    {
        type            empty;
        value           nonuniform 0();
    }
    glass1
    {
        type            calculated;
        value           nonuniform List<scalar> 9(-5.98218e-05 -0.000161262 -0.000247038 -0.000320436 -0.000382965 -0.000435747 -0.000484014 -0.000542106 -0.000606715);
    }
    glass2
    {
        type            calculated;
        value           nonuniform List<scalar> 2(-0.000286613 -0.000315784);
    }
    sun
    {
        type            calculated;
        value           uniform 0;
    }
    heatsource1
    {
        type            calculated;
        value           nonuniform List<scalar> 3(2.04643e-07 2.04596e-07 2.04622e-07);
    }
    heatsource2
    {
        type            calculated;
        value           nonuniform List<scalar> 4(5.14408e-08 5.15215e-08 0 0);
    }
    Table_master
    {
        type            calculated;
        value           nonuniform List<scalar> 9(-1.53603e-07 -1.53748e-07 -1.53795e-07 -1.53826e-07 -1.53848e-07 -1.53862e-07 -1.5387e-07 -1.53866e-07 -1.53815e-07);
    }
    Table_slave
    {
        type            calculated;
        value           nonuniform List<scalar> 9(1.53485e-07 1.53523e-07 1.5351e-07 1.53507e-07 1.53507e-07 1.5352e-07 1.53551e-07 1.53607e-07 1.53698e-07);
    }
    inlet
    {
        type            calculated;
        value           uniform -0.00627724;
    }
    outlet
    {
        type            calculated;
        value           nonuniform List<scalar> 2(0.00811683 0.00330384);
    }
}


// ************************************************************************* //
