/*--------------------------------*- C++ -*----------------------------------*\
  =========                 |
  \\      /  F ield         | OpenFOAM: The Open Source CFD Toolbox
   \\    /   O peration     | Website:  https://openfoam.org
    \\  /    A nd           | Version:  6
     \\/     M anipulation  |
\*---------------------------------------------------------------------------*/
FoamFile
{
    version     2.0;
    format      ascii;
    class       volScalarField;
    location    "100";
    object      T;
}
// * * * * * * * * * * * * * * * * * * * * * * * * * * * * * * * * * * * * * //

dimensions      [0 0 0 1 0 0 0];

internalField   nonuniform List<scalar> 
459
(
302.534
302.254
302.237
302.231
302.225
302.218
302.212
302.202
302.191
302.18
302.171
302.169
302.173
302.187
302.223
302.429
302.388
302.369
302.374
302.382
302.391
302.4
302.408
302.417
302.426
302.436
302.448
302.46
302.475
302.491
302.511
302.535
302.568
302.629
302.716
302.295
302.264
302.262
302.26
302.256
302.248
302.232
302.207
302.18
302.158
302.147
302.148
302.158
302.171
302.176
302.186
302.44
302.352
302.341
302.349
302.364
302.378
302.384
302.389
302.395
302.4
302.406
302.414
302.423
302.435
302.451
302.472
302.501
302.544
302.62
302.909
302.348
302.301
302.307
302.316
302.32
302.314
302.287
302.241
302.192
302.154
302.135
302.134
302.144
302.157
302.166
302.175
302.328
302.31
302.32
302.344
302.373
302.396
302.397
302.399
302.401
302.403
302.407
302.413
302.422
302.435
302.451
302.473
302.501
302.544
302.622
303.107
302.417
302.344
302.359
302.386
302.407
302.404
302.358
302.281
302.205
302.148
302.121
302.121
302.135
302.153
302.168
302.179
302.197
302.227
302.271
302.32
302.369
302.413
302.448
302.475
302.494
302.511
302.524
302.537
302.548
302.558
302.568
302.578
302.554
302.545
302.563
302.632
303.301
302.506
302.398
302.412
302.458
302.505
302.496
302.418
302.305
302.204
302.135
302.105
302.109
302.132
302.162
302.189
302.213
302.245
302.287
302.339
302.394
302.448
302.495
302.534
302.567
302.591
302.61
302.625
302.636
302.642
302.645
302.644
302.639
302.616
302.589
302.587
302.637
302.796
302.874
302.874
303.479
302.622
302.487
302.486
302.544
302.595
302.548
302.434
302.297
302.179
302.104
302.08
302.097
302.139
302.189
302.236
302.279
302.325
302.379
302.438
302.496
302.55
302.596
302.633
302.662
302.684
302.701
302.712
302.718
302.718
302.715
302.706
302.692
302.666
302.633
302.615
302.641
302.725
302.765
302.82
303.647
302.805
302.677
302.669
302.711
302.677
302.552
302.383
302.218
302.099
302.042
302.045
302.094
302.169
302.248
302.32
302.383
302.442
302.502
302.561
302.616
302.664
302.703
302.733
302.756
302.772
302.784
302.79
302.79
302.784
302.774
302.76
302.74
302.712
302.677
302.651
302.657
302.696
302.726
302.771
303.884
303.262
303.123
303.056
302.913
302.683
302.422
302.188
302.024
301.947
301.953
302.02
302.125
302.248
302.361
302.453
302.525
302.587
302.642
302.692
302.736
302.773
302.801
302.822
302.837
302.847
302.852
302.853
302.849
302.84
302.826
302.811
302.791
302.765
302.733
302.709
302.712
302.748
302.79
302.958
304.227
303.93
303.645
303.231
302.649
302.154
301.827
301.67
301.656
301.75
301.905
302.078
302.251
302.422
302.544
302.624
302.682
302.729
302.77
302.807
302.838
302.863
302.881
302.894
302.901
302.904
302.905
302.902
302.897
302.892
302.887
302.883
302.883
302.89
302.908
302.943
302.994
303.045
303.073
303.138
293.087
294.599
296.983
298.698
299.892
300.748
301.376
301.853
302.198
302.402
302.545
302.649
302.721
302.773
302.813
302.847
302.876
302.9
302.918
302.932
302.942
302.947
302.95
302.951
302.951
302.95
302.949
302.948
302.947
302.947
302.952
302.961
302.979
303.007
303.044
303.08
303.109
303.137
294.421
297.068
299.342
300.535
301.273
301.77
302.113
302.361
302.543
302.665
302.751
302.811
302.855
302.888
302.914
302.935
302.952
302.965
302.974
302.98
302.983
302.985
302.987
302.987
302.988
302.987
302.987
302.986
302.986
302.987
302.99
302.996
303.008
303.026
303.05
303.079
303.083
303.118
298.581
298.511
298.508
300.868
301.756
302.126
302.352
302.521
302.651
302.75
302.825
302.878
302.917
302.944
302.964
302.98
302.991
303
303.006
303.01
303.013
303.014
303.016
303.016
303.016
303.016
303.016
303.015
303.015
303.014
303.014
303.014
303.015
303.017
303.022
303.033
303.048
303.059
303.065
303.107
)
;

boundaryField
{
    floor
    {
        type            wallHeatTransfer;
        Tinf            uniform 305.2;
        alphaWall       uniform 0.24;
        value           nonuniform List<scalar> 
29
(
302.537
302.883
302.793
302.738
302.733
302.744
302.76
302.783
302.808
302.833
302.859
302.884
302.909
302.935
302.961
302.989
303.019
303.055
303.099
303.182
303.182
303.13
303.104
303.092
302.537
302.883
302.889
302.634
302.43
)
;
    }
    ceiling
    {
        type            wallHeatTransfer;
        Tinf            uniform 303.2;
        alphaWall       uniform 0.24;
        value           nonuniform List<scalar> 
43
(
298.883
298.803
298.791
301.001
301.842
302.192
302.406
302.567
302.691
302.786
302.858
302.91
302.947
302.974
302.994
303.009
303.02
303.028
303.034
303.039
303.041
303.042
303.043
303.043
303.043
303.042
303.041
303.04
303.039
303.038
303.037
303.036
303.036
303.038
303.041
303.05
303.063
303.073
303.079
303.118
304.181
303.902
294.94
)
;
    }
    sWall
    {
        type            wallHeatTransfer;
        Tinf            uniform 315.2;
        alphaWall       uniform 0.36;
        value           uniform 300.165;
    }
    nWall
    {
        type            wallHeatTransfer;
        Tinf            uniform 307.2;
        alphaWall       uniform 0.36;
        value           nonuniform List<scalar> 6(303.662 303.597 303.513 303.723 303.702 303.747);
    }
    sideWalls
    {
        type            empty;
    }
    glass1
    {
        type            wallHeatTransfer;
        Tinf            uniform 315.2;
        alphaWall       uniform 4.3;
        value           nonuniform List<scalar> 9(310.97 310.309 309.9 309.593 309.337 309.105 308.944 309.034 309.289);
    }
    glass2
    {
        type            wallHeatTransfer;
        Tinf            uniform 307.2;
        alphaWall       uniform 4.3;
        value           nonuniform List<scalar> 2(305.573 305.697);
    }
    sun
    {
        type            wallHeatTransfer;
        Tinf            uniform 305.2;
        alphaWall       uniform 0.24;
        value           nonuniform List<scalar> 
14
(
302.796
302.523
302.502
302.485
302.471
302.457
302.443
302.429
302.415
302.405
302.4
302.405
302.423
302.461
)
;
    }
    heatsource1
    {
        type            fixedGradient;
        gradient        uniform 0;
    }
    heatsource2
    {
        type            fixedGradient;
        gradient        uniform 0;
    }
    Table_master
    {
        type            zeroGradient;
    }
    Table_slave
    {
        type            zeroGradient;
    }
    inlet
    {
        type            fixedValue;
        value           uniform 290.15;
    }
    outlet
    {
        type            zeroGradient;
    }
}


// ************************************************************************* //
