/*--------------------------------*- C++ -*----------------------------------*\
  =========                 |
  \\      /  F ield         | OpenFOAM: The Open Source CFD Toolbox
   \\    /   O peration     | Website:  https://openfoam.org
    \\  /    A nd           | Version:  6
     \\/     M anipulation  |
\*---------------------------------------------------------------------------*/
FoamFile
{
    version     2.0;
    format      ascii;
    class       volVectorField;
    location    "100";
    object      U;
}
// * * * * * * * * * * * * * * * * * * * * * * * * * * * * * * * * * * * * * //

dimensions      [0 1 -1 0 0 0 0];

internalField   nonuniform List<vector> 
459
(
(0.0266922 0.0906996 0)
(-0.177206 0.0284665 0)
(-0.206208 0.0180009 0)
(-0.237506 0.0104607 0)
(-0.257315 0.0023734 0)
(-0.264235 -0.00606589 0)
(-0.256303 -0.0147761 0)
(-0.234604 -0.023408 0)
(-0.201014 -0.0304898 0)
(-0.159527 -0.034813 0)
(-0.115014 -0.0357474 0)
(-0.072364 -0.0329188 0)
(-0.0358011 -0.0259462 0)
(-0.00920425 -0.0141722 0)
(-0.0201548 0.000373304 0)
(-0.0162721 0.0108954 0)
(-0.0353839 -0.0198807 0)
(-0.00834772 -0.034227 0)
(0.0232142 -0.0288683 0)
(0.0460778 -0.0213529 0)
(0.0657496 -0.0147632 0)
(0.0787846 -0.00871762 0)
(0.0857515 -0.00546163 0)
(0.0888742 -0.00426231 0)
(0.0905037 -0.00385165 0)
(0.0918089 -0.00364673 0)
(0.0930104 -0.00348921 0)
(0.0939952 -0.00325667 0)
(0.0944093 -0.00270374 0)
(0.0932817 -0.00125176 0)
(0.0887443 0.00185007 0)
(0.0785186 0.00619035 0)
(0.0621956 0.0124924 0)
(0.0128512 0.0309317 0)
(0.20135 0.185207 0)
(-0.161111 0.075257 0)
(-0.164021 0.0555682 0)
(-0.195921 0.0397495 0)
(-0.215487 0.0219075 0)
(-0.222661 0.00210621 0)
(-0.215257 -0.0192583 0)
(-0.195 -0.0395441 0)
(-0.164482 -0.0552559 0)
(-0.12793 -0.0641438 0)
(-0.0897059 -0.0656468 0)
(-0.0537426 -0.0599106 0)
(-0.022925 -0.0473064 0)
(0.00139804 -0.0279453 0)
(0.0144592 -0.00910692 0)
(0.0238647 0.00245006 0)
(0.0162088 0.0225368 0)
(0.0509144 0.0453944 0)
(0.0294279 -0.0265864 0)
(0.0422423 -0.0433678 0)
(0.0578552 -0.0403018 0)
(0.0718387 -0.0312922 0)
(0.0830949 -0.0214787 0)
(0.0887674 -0.00924089 0)
(0.0899517 -0.00206375 0)
(0.089752 0.000644716 0)
(0.0898161 0.00151237 0)
(0.0901287 0.00179506 0)
(0.0903943 0.00187537 0)
(0.0905392 0.00211066 0)
(0.0905314 0.00320557 0)
(0.0895773 0.00636076 0)
(0.0846905 0.0147715 0)
(0.0723591 0.0242297 0)
(0.0571533 0.0353293 0)
(-0.0245074 0.0644821 0)
(0.3618 0.276247 0)
(-0.173036 0.117955 0)
(-0.122115 0.0887519 0)
(-0.152375 0.0615589 0)
(-0.169588 0.0322336 0)
(-0.175291 -6.65655e-05 0)
(-0.165784 -0.0342187 0)
(-0.14479 -0.0655021 0)
(-0.116073 -0.0882019 0)
(-0.0840938 -0.0995702 0)
(-0.0522917 -0.0997925 0)
(-0.0233537 -0.0898681 0)
(0.00163299 -0.0709516 0)
(0.0216481 -0.0455648 0)
(0.0353712 -0.0192063 0)
(0.0423659 0.0068273 0)
(0.0416104 0.0470172 0)
(0.121052 -0.0282295 0)
(0.0893724 -0.0487994 0)
(0.086047 -0.0535327 0)
(0.0893475 -0.0487064 0)
(0.0928012 -0.0397821 0)
(0.096621 -0.0316171 0)
(0.0974075 -0.0239043 0)
(0.0898376 -0.0159854 0)
(0.0837289 -0.0116855 0)
(0.0809059 -0.00927308 0)
(0.0795218 -0.00775553 0)
(0.0783594 -0.00674692 0)
(0.0772769 -0.00592471 0)
(0.0769173 -0.00465922 0)
(0.0793756 -0.000177166 0)
(0.0772283 0.020952 0)
(0.0631035 0.0391025 0)
(0.0557698 0.0572786 0)
(-0.0601642 0.098575 0)
(0.507332 0.348996 0)
(-0.203765 0.154855 0)
(-0.0789098 0.116723 0)
(-0.106318 0.0799938 0)
(-0.117883 0.0412575 0)
(-0.117597 -0.00286494 0)
(-0.102266 -0.0502427 0)
(-0.079269 -0.0912508 0)
(-0.0534155 -0.118485 0)
(-0.0281027 -0.130244 0)
(-0.00478877 -0.128168 0)
(0.0155362 -0.113869 0)
(0.0321856 -0.0912954 0)
(0.0469685 -0.0630795 0)
(0.0608543 -0.0329603 0)
(0.07708 -0.0026119 0)
(0.0998231 0.0327704 0)
(0.137474 0.0324834 0)
(0.139414 -0.020999 0)
(0.122055 -0.0421244 0)
(0.109644 -0.0465191 0)
(0.101517 -0.0436352 0)
(0.0949224 -0.0367922 0)
(0.0890942 -0.0272922 0)
(0.0883164 -0.0157766 0)
(0.0947075 -0.0103282 0)
(0.0992448 -0.00724315 0)
(0.100588 -0.00522461 0)
(0.0997339 -0.00345928 0)
(0.0970842 -0.00162617 0)
(0.0921041 0.00054595 0)
(0.0835733 0.0035225 0)
(0.0678287 0.00807396 0)
(0.0560636 0.032415 0)
(0.0458471 0.0555393 0)
(0.0557679 0.07872 0)
(-0.0947584 0.127552 0)
(0.63346 0.404778 0)
(-0.243625 0.184062 0)
(-0.0373766 0.132301 0)
(-0.0586322 0.0899656 0)
(-0.0609964 0.0444458 0)
(-0.0457882 -0.0108148 0)
(-0.0216691 -0.0698428 0)
(0.00180365 -0.115847 0)
(0.021255 -0.142153 0)
(0.0362275 -0.150429 0)
(0.0476395 -0.144761 0)
(0.0560913 -0.12806 0)
(0.062777 -0.103678 0)
(0.0691042 -0.0749748 0)
(0.0765092 -0.0457299 0)
(0.0870872 -0.0198902 0)
(0.103365 -0.00420652 0)
(0.115823 -0.0154929 0)
(0.115693 -0.031512 0)
(0.106806 -0.0376869 0)
(0.095348 -0.0376977 0)
(0.0849766 -0.0345522 0)
(0.076186 -0.0289608 0)
(0.0694502 -0.0208684 0)
(0.0667638 -0.0097117 0)
(0.0679619 -0.0033766 0)
(0.069239 -0.000528955 0)
(0.0696296 0.00133179 0)
(0.0693259 0.0034217 0)
(0.0682231 0.00618095 0)
(0.0658919 0.00998588 0)
(0.061844 0.0154454 0)
(0.054984 0.0236638 0)
(0.0478262 0.0417177 0)
(0.0393059 0.0661634 0)
(0.0636129 0.0953365 0)
(-0.0175639 0.141059 0)
(0.0464282 0.0412609 0)
(-0.0728683 -0.0426439 0)
(-0.282649 -0.0647706 0)
(0.725922 0.450473 0)
(-0.283445 0.202463 0)
(-0.00558169 0.126434 0)
(-0.00839195 0.0873961 0)
(0.00557698 0.0332208 0)
(0.0456061 -0.0358867 0)
(0.0734462 -0.0935341 0)
(0.0913967 -0.132788 0)
(0.100362 -0.153335 0)
(0.102412 -0.157411 0)
(0.09966 -0.148279 0)
(0.0940517 -0.129418 0)
(0.0876271 -0.10442 0)
(0.0821522 -0.0766013 0)
(0.079064 -0.0495556 0)
(0.079512 -0.0270488 0)
(0.0836998 -0.0135217 0)
(0.0863591 -0.0139539 0)
(0.0828898 -0.0202512 0)
(0.0741596 -0.0250796 0)
(0.0635155 -0.0263114 0)
(0.0535651 -0.024708 0)
(0.0451886 -0.0209488 0)
(0.0390034 -0.0153147 0)
(0.0359428 -0.00861021 0)
(0.0358143 -0.00452848 0)
(0.0368757 -0.0024997 0)
(0.038255 -0.000775408 0)
(0.0399262 0.00172069 0)
(0.0412152 0.00533868 0)
(0.0419849 0.0103801 0)
(0.0422479 0.0174588 0)
(0.0417973 0.0274856 0)
(0.0421368 0.0435708 0)
(0.0412884 0.0667162 0)
(0.0696327 0.0975647 0)
(0.047522 0.129004 0)
(0.0950085 0.0821936 0)
(0.121392 0.0488329 0)
(-0.144704 -0.0151839 0)
(0.787866 0.492052 0)
(-0.301794 0.184874 0)
(0.0295383 0.0658397 0)
(0.0660449 0.0430412 0)
(0.114036 -0.009993 0)
(0.155404 -0.0699923 0)
(0.178504 -0.114918 0)
(0.185527 -0.141856 0)
(0.179342 -0.152408 0)
(0.163823 -0.149326 0)
(0.142896 -0.135815 0)
(0.120017 -0.115317 0)
(0.0980856 -0.0910173 0)
(0.0791072 -0.0654822 0)
(0.0644362 -0.0417658 0)
(0.054716 -0.0230354 0)
(0.0495034 -0.0119236 0)
(0.0456699 -0.00986877 0)
(0.0400139 -0.0127632 0)
(0.0320737 -0.0159171 0)
(0.0232601 -0.0171171 0)
(0.0150151 -0.0164126 0)
(0.00814501 -0.0142605 0)
(0.00329044 -0.0110249 0)
(0.00108095 -0.0074926 0)
(0.00129166 -0.00532721 0)
(0.002854 -0.00421262 0)
(0.00512257 -0.00302767 0)
(0.00807926 -0.0008255 0)
(0.0120085 0.00295583 0)
(0.015788 0.00819121 0)
(0.0199294 0.0152567 0)
(0.0247695 0.0249185 0)
(0.031609 0.0387111 0)
(0.0387178 0.0573052 0)
(0.0661092 0.0827018 0)
(0.0793016 0.0993361 0)
(0.119257 0.0650465 0)
(0.164747 0.0462201 0)
(-0.03909 0.0951064 0)
(0.897248 0.488353 0)
(-0.0461422 0.161501 0)
(0.127241 -0.0303985 0)
(0.234515 -0.0801213 0)
(0.282073 -0.100963 0)
(0.299198 -0.119097 0)
(0.296797 -0.131887 0)
(0.277433 -0.136275 0)
(0.244811 -0.132205 0)
(0.20425 -0.120836 0)
(0.160982 -0.103921 0)
(0.119287 -0.0838387 0)
(0.0822351 -0.0627045 0)
(0.0513344 -0.0418167 0)
(0.0279975 -0.0236882 0)
(0.0123837 -0.0109187 0)
(0.00341459 -0.00446522 0)
(-0.00220361 -0.00370158 0)
(-0.00753421 -0.00593091 0)
(-0.0137026 -0.00832249 0)
(-0.0201677 -0.00961499 0)
(-0.0261281 -0.00979807 0)
(-0.0309873 -0.00916918 0)
(-0.0342816 -0.00807078 0)
(-0.0357376 -0.00699971 0)
(-0.0356442 -0.006495 0)
(-0.0346268 -0.00637929 0)
(-0.0330169 -0.00616091 0)
(-0.0307347 -0.00532338 0)
(-0.0272153 -0.00330683 0)
(-0.0213811 0.000319698 0)
(-0.015818 0.00522645 0)
(-0.00879664 0.0112998 0)
(0.00100934 0.0196716 0)
(0.0122522 0.0298663 0)
(0.037154 0.0429568 0)
(0.0615111 0.0402592 0)
(0.088486 0.000761148 0)
(0.154939 0.0395185 0)
(-0.444334 0.21402 0)
(1.05124 0.428693 0)
(0.498205 0.279198 0)
(0.519718 0.168678 0)
(0.550012 0.076829 0)
(0.520511 0.0122927 0)
(0.462703 -0.0328253 0)
(0.397145 -0.0601334 0)
(0.327683 -0.0719408 0)
(0.256253 -0.0720881 0)
(0.186852 -0.0643058 0)
(0.123588 -0.0516547 0)
(0.0695714 -0.0371972 0)
(0.0257854 -0.0230621 0)
(-0.00893024 -0.0102224 0)
(-0.0301209 -0.00248344 0)
(-0.0416286 0.000989866 0)
(-0.0475303 0.00178718 0)
(-0.0509802 0.00075105 0)
(-0.0542412 -0.00113969 0)
(-0.0582586 -0.00296103 0)
(-0.0626264 -0.00429939 0)
(-0.0668455 -0.00512885 0)
(-0.0705235 -0.00557656 0)
(-0.0734165 -0.00580766 0)
(-0.0755166 -0.0060031 0)
(-0.0771586 -0.00626723 0)
(-0.0788469 -0.00642284 0)
(-0.0810355 -0.00612158 0)
(-0.0841885 -0.00490679 0)
(-0.0889651 -0.00223005 0)
(-0.0954671 0.00245698 0)
(-0.102746 0.00951529 0)
(-0.113438 0.019713 0)
(-0.12945 0.0339806 0)
(-0.153863 0.0521947 0)
(-0.188766 0.0721282 0)
(-0.240305 0.0878953 0)
(-0.304273 0.0966037 0)
(-0.379047 0.0999254 0)
(-0.65247 0.0969455 0)
(-0.145542 -0.0320655 0)
(0.0967091 -0.0609272 0)
(0.170334 -0.073117 0)
(0.149927 -0.0597588 0)
(0.121349 -0.0418408 0)
(0.0886982 -0.0260301 0)
(0.050425 -0.012967 0)
(0.00913024 -0.00274021 0)
(-0.0283919 0.00379754 0)
(-0.0548318 0.00658813 0)
(-0.0734108 0.00766178 0)
(-0.0844028 0.00728457 0)
(-0.0896235 0.00571411 0)
(-0.0922417 0.00401004 0)
(-0.093618 0.00229275 0)
(-0.0948308 0.000431163 0)
(-0.096563 -0.00147917 0)
(-0.0988891 -0.00325936 0)
(-0.101856 -0.00479692 0)
(-0.10523 -0.00599714 0)
(-0.108732 -0.00680962 0)
(-0.112177 -0.00721988 0)
(-0.115575 -0.00721723 0)
(-0.119054 -0.00676573 0)
(-0.122733 -0.00570833 0)
(-0.126598 -0.00378435 0)
(-0.130512 -0.000668052 0)
(-0.134014 0.00384099 0)
(-0.137 0.0102045 0)
(-0.139704 0.0192434 0)
(-0.142098 0.0319702 0)
(-0.14432 0.049373 0)
(-0.146972 0.0711923 0)
(-0.150398 0.0932315 0)
(-0.152053 0.103165 0)
(-0.13576 0.0769413 0)
(-0.0928651 -0.0258504 0)
(-0.285976 -0.217303 0)
(0.0646193 0.185433 0)
(0.00163118 0.0516414 0)
(-0.0406504 0.0035106 0)
(-0.0728978 0.00468967 0)
(-0.098288 0.0128762 0)
(-0.116355 0.0192663 0)
(-0.127572 0.0238215 0)
(-0.133898 0.0261113 0)
(-0.13769 0.0259173 0)
(-0.13906 0.0241558 0)
(-0.138773 0.0223164 0)
(-0.137285 0.0206511 0)
(-0.135407 0.0192989 0)
(-0.133754 0.0186212 0)
(-0.132504 0.0185598 0)
(-0.1318 0.0188732 0)
(-0.131705 0.01933 0)
(-0.132142 0.0197204 0)
(-0.132972 0.0198508 0)
(-0.134031 0.0195739 0)
(-0.135248 0.018909 0)
(-0.136598 0.0179719 0)
(-0.138026 0.0168585 0)
(-0.139464 0.0157138 0)
(-0.140814 0.0146264 0)
(-0.1419 0.0137648 0)
(-0.142417 0.0134497 0)
(-0.142081 0.0142702 0)
(-0.140278 0.0168633 0)
(-0.135951 0.0220368 0)
(-0.127568 0.0309049 0)
(-0.113668 0.0448461 0)
(-0.0938831 0.0643276 0)
(-0.0693169 0.0856438 0)
(-0.0426181 0.0994057 0)
(-0.00191642 0.0836784 0)
(0.147475 0.00536562 0)
(-0.208898 -0.129099 0)
(-0.088892 -0.342623 0)
(-0.442864 -0.138236 0)
(-0.334215 0.0387648 0)
(-0.304932 -0.0371794 0)
(-0.267864 -0.0406349 0)
(-0.260067 -0.0330231 0)
(-0.253725 -0.0261838 0)
(-0.244918 -0.0217913 0)
(-0.233239 -0.0194308 0)
(-0.219691 -0.0191603 0)
(-0.205924 -0.0210871 0)
(-0.193368 -0.024411 0)
(-0.182768 -0.0279487 0)
(-0.174239 -0.0313758 0)
(-0.167583 -0.0346912 0)
(-0.162369 -0.0378836 0)
(-0.158164 -0.0410087 0)
(-0.154696 -0.0440327 0)
(-0.151823 -0.0467643 0)
(-0.149478 -0.0489293 0)
(-0.147648 -0.0503067 0)
(-0.146334 -0.050792 0)
(-0.145503 -0.0503939 0)
(-0.145062 -0.0492 0)
(-0.144881 -0.0473143 0)
(-0.144806 -0.0448559 0)
(-0.144628 -0.0418003 0)
(-0.144073 -0.0381019 0)
(-0.142747 -0.0337423 0)
(-0.140009 -0.0286243 0)
(-0.134775 -0.0225665 0)
(-0.125216 -0.0152205 0)
(-0.108631 -0.00593192 0)
(-0.0824585 0.00634775 0)
(-0.0464185 0.0226023 0)
(0.00671222 0.0438895 0)
(0.0618844 0.0489405 0)
(0.111268 0.0286959 0)
(0.172148 -0.010339 0)
(-0.196106 -0.0758633 0)
)
;

boundaryField
{
    floor
    {
        type            noSlip;
    }
    ceiling
    {
        type            noSlip;
    }
    sWall
    {
        type            noSlip;
    }
    nWall
    {
        type            noSlip;
    }
    sideWalls
    {
        type            empty;
    }
    glass1
    {
        type            noSlip;
    }
    glass2
    {
        type            noSlip;
    }
    sun
    {
        type            noSlip;
    }
    heatsource1
    {
        type            noSlip;
    }
    heatsource2
    {
        type            noSlip;
    }
    Table_master
    {
        type            noSlip;
    }
    Table_slave
    {
        type            noSlip;
    }
    inlet
    {
        type            fixedValue;
        value           uniform (0.277164 -0.114805 0);
    }
    outlet
    {
        type            zeroGradient;
    }
}


// ************************************************************************* //
