/*--------------------------------*- C++ -*----------------------------------*\
  =========                 |
  \\      /  F ield         | OpenFOAM: The Open Source CFD Toolbox
   \\    /   O peration     | Website:  https://openfoam.org
    \\  /    A nd           | Version:  6
     \\/     M anipulation  |
\*---------------------------------------------------------------------------*/
FoamFile
{
    version     2.0;
    format      ascii;
    class       volScalarField;
    location    "20";
    object      alphat;
}
// * * * * * * * * * * * * * * * * * * * * * * * * * * * * * * * * * * * * * //

dimensions      [1 -1 -1 0 0 0 0];

internalField   nonuniform List<scalar> 
459
(
0.0017247
0.0019202
0.00191924
0.00196392
0.00200376
0.00202179
0.00202914
0.00202554
0.00200628
0.00196811
0.00191161
0.00183964
0.00175445
0.00165689
0.00154612
0.000904971
0.00119328
0.00132725
0.00134701
0.00130957
0.00119919
0.00100564
0.000856539
0.000773294
0.000740194
0.000730074
0.000728467
0.00073293
0.000752022
0.000811356
0.000949043
0.00104817
0.00103966
0.000859307
0.00234488
0.00814849
0.00897542
0.00991083
0.0103971
0.0106915
0.0109723
0.0113234
0.0117377
0.0121307
0.0123579
0.0122659
0.0116684
0.0101659
0.00675988
0.00166177
0.00115137
0.00120391
0.00517825
0.00730333
0.00795671
0.00753282
0.00606075
0.003719
0.00265608
0.00214758
0.00193963
0.00186786
0.00185435
0.00188713
0.00202264
0.0024342
0.00363759
0.00454389
0.00455037
0.00107565
0.00275593
0.0108743
0.0115738
0.0124591
0.0132297
0.0136213
0.0139316
0.0144097
0.0151887
0.0162693
0.0173472
0.0179935
0.0177815
0.0163515
0.0132487
0.00810933
0.00177654
0.00168839
0.00805875
0.0112973
0.0120579
0.0109142
0.00755891
0.00141141
0.000995532
0.000812049
0.000749187
0.000732703
0.00073105
0.000739915
0.0007852
0.00101157
0.00388856
0.00585741
0.00609323
0.0013168
0.00289024
0.0111923
0.0110787
0.0127894
0.0137795
0.0140728
0.0142442
0.014465
0.0150975
0.016514
0.0183903
0.0201028
0.0208495
0.0201915
0.0179019
0.0137607
0.00765445
0.00200551
0.00854787
0.0128581
0.0149467
0.0150936
0.0132143
0.00830481
0.00170353
0.00154729
0.00152499
0.00153284
0.0015608
0.00160196
0.00164887
0.00169316
0.00174042
0.00419665
0.00678202
0.00718211
0.00170658
0.00290178
0.00457243
0.00525004
0.00640938
0.00812077
0.00978637
0.0111015
0.0121938
0.0134248
0.0151408
0.0175167
0.0202594
0.0221087
0.0224597
0.021243
0.0187505
0.0154932
0.0127272
0.0150694
0.0170508
0.0180086
0.0178311
0.0164469
0.013843
0.0107787
0.0102159
0.0100752
0.0101037
0.0102275
0.0103874
0.0105196
0.0105545
0.0105024
0.0109779
0.0110026
0.0099572
0.00571765
0.00202093
0.00183866
0.00158674
0.00449308
0.00532708
0.00532057
0.00531894
0.00578409
0.00677149
0.00808665
0.00958328
0.0112747
0.0133324
0.0160544
0.0193792
0.0222223
0.0235005
0.0231376
0.0217653
0.0200653
0.0188539
0.0192509
0.0198808
0.020158
0.0198626
0.0189502
0.0175592
0.0161568
0.0155184
0.0152552
0.0151883
0.0152184
0.0152429
0.0151314
0.0147608
0.0141416
0.0135084
0.0128957
0.0119775
0.00997236
0.00757345
0.00622905
0.00192363
0.00501345
0.00717278
0.0079093
0.00706189
0.00678778
0.00709648
0.00796723
0.00933493
0.0111685
0.0134869
0.0163133
0.0194624
0.0222115
0.023648
0.0236854
0.0228959
0.0219131
0.0212125
0.021088
0.0211651
0.0211293
0.0208167
0.020196
0.0193664
0.0185542
0.0180054
0.0176692
0.0174639
0.0173004
0.0170487
0.0165158
0.0155568
0.0142682
0.013001
0.0120594
0.011411
0.0105979
0.00916641
0.00756716
0.00212515
0.00544925
0.00811206
0.010879
0.00876681
0.00790915
0.00790968
0.00867221
0.0101099
0.0121387
0.0146282
0.0173775
0.0200443
0.0220689
0.0229891
0.0229208
0.0223371
0.0216825
0.0212084
0.0209912
0.020894
0.0207564
0.0204776
0.0200345
0.0194785
0.0189131
0.0184332
0.0180447
0.0177117
0.01736
0.0168401
0.0159227
0.0144914
0.0127898
0.0112587
0.0102096
0.00961031
0.00878359
0.00736705
0.00635262
0.0021389
0.00595766
0.00711339
0.0121769
0.00945542
0.00871828
0.00911556
0.00991154
0.0114589
0.0136156
0.0160118
0.018229
0.0199644
0.0209356
0.0210372
0.0206305
0.020078
0.0196034
0.0192881
0.0191168
0.0190101
0.018879
0.0186636
0.0183467
0.0179498
0.0175166
0.0170861
0.0166705
0.0162638
0.0158329
0.0152572
0.0142748
0.0126947
0.0106862
0.00854978
0.00660096
0.00515017
0.00420661
0.00354042
0.00302565
0.00198261
0.0156733
0.00953185
0.00869785
0.0105484
0.0115066
0.0128843
0.0145848
0.0162266
0.0174179
0.017919
0.0177375
0.0171009
0.0164547
0.0159733
0.0156764
0.0155196
0.0154452
0.0153975
0.0153242
0.0151912
0.0149871
0.0147176
0.0143957
0.014032
0.0136353
0.0132293
0.0128677
0.0125928
0.0122945
0.0116309
0.0104259
0.00906435
0.00780698
0.00681132
0.00598669
0.00522743
0.0044539
0.0018245
0.00511811
0.00587422
0.00901741
0.01043
0.011293
0.0121126
0.0128127
0.0131934
0.0131452
0.0126614
0.0118058
0.0109714
0.0104496
0.0102162
0.0101696
0.0101986
0.0102419
0.0102812
0.0102908
0.0102558
0.0101714
0.0100356
0.00984168
0.00957833
0.00924138
0.00886353
0.0085526
0.00847953
0.00873433
0.00903264
0.00879976
0.00830565
0.00772732
0.00725268
0.00683138
0.00640951
0.00500044
0.00186781
0.00263303
0.00300186
0.00334632
0.00231326
0.0023915
0.00253478
0.00260126
0.00258269
0.00249086
0.00234094
0.00214817
0.0019802
0.00185611
0.00178338
0.00173798
0.00171261
0.00170049
0.00169541
0.00169352
0.00169237
0.00169018
0.00168593
0.00167916
0.00166963
0.00165712
0.00164138
0.00162286
0.00160445
0.00159407
0.00160427
0.00164525
0.00172636
0.00184951
0.00196248
0.00207061
0.00211211
0.00211157
0.00202691
0.00187734
0.00169894
)
;

boundaryField
{
    floor
    {
        type            compressible::alphatWallFunction;
        Prt             0.85;
        value           nonuniform List<scalar> 
29
(
0.000217179
0.000128856
0.000169286
0.00018767
0.000190362
0.000185246
0.000170076
0.000143086
0.000121908
0.000109925
0.00010513
0.000103662
0.000103431
0.000104086
0.000106877
0.000115497
0.000135218
0.000149164
0.000147922
0.000122324
0.000122323
0.000152915
0.000186208
0.000238667
0.000217177
0.000128855
0.000170751
0.000236226
0.000277941
)
;
    }
    ceiling
    {
        type            compressible::alphatWallFunction;
        Prt             0.85;
        value           nonuniform List<scalar> 
43
(
0.000358594
0.000404979
0.000447783
0.000317777
0.000327774
0.000346038
0.000354461
0.000352086
0.000340389
0.000321232
0.000296435
0.000274656
0.000258453
0.000248911
0.000242932
0.000239576
0.000237964
0.000237283
0.000237025
0.000236868
0.000236574
0.000236008
0.000235107
0.000233842
0.000232181
0.000230091
0.000227632
0.000225181
0.000223789
0.000225127
0.000230554
0.000241278
0.000257539
0.000272373
0.000286472
0.000291839
0.000291742
0.000280737
0.000261197
0.000237658
0.000759786
0.00089328
0.000661551
)
;
    }
    sWall
    {
        type            compressible::alphatWallFunction;
        Prt             0.85;
        value           uniform 0.00035742;
    }
    nWall
    {
        type            compressible::alphatWallFunction;
        Prt             0.85;
        value           nonuniform List<scalar> 6(0.000222402 0.000266906 0.000293082 0.000253891 0.000259572 0.000237264);
    }
    sideWalls
    {
        type            empty;
    }
    glass1
    {
        type            compressible::alphatWallFunction;
        Prt             0.85;
        value           nonuniform List<scalar> 9(0.000235227 0.000314941 0.000366667 0.0003836 0.000385186 0.000577592 0.000639246 0.000690221 0.000749253);
    }
    glass2
    {
        type            compressible::alphatWallFunction;
        Prt             0.85;
        value           nonuniform List<scalar> 2(0.000292587 0.00027245);
    }
    sun
    {
        type            compressible::alphatWallFunction;
        Prt             0.85;
        value           nonuniform List<scalar> 
14
(
0.000241014
0.00026674
0.000266618
0.000272469
0.000277686
0.000280046
0.00028101
0.000280545
0.000278029
0.000273036
0.000265632
0.000256174
0.000244931
0.000231987
)
;
    }
    heatsource1
    {
        type            compressible::alphatWallFunction;
        Prt             0.85;
        value           nonuniform List<scalar> 3(0.000280218 0.000256329 0.000222894);
    }
    heatsource2
    {
        type            compressible::alphatWallFunction;
        Prt             0.85;
        value           nonuniform List<scalar> 4(0.000232899 0.000163624 0.000163622 0.000248093);
    }
    Table_master
    {
        type            compressible::alphatWallFunction;
        Prt             0.85;
        value           nonuniform List<scalar> 9(0.000199283 0.000141838 0.000115705 0.000106625 0.000104237 0.000104002 0.0001053 0.000111903 0.000144281);
    }
    Table_slave
    {
        type            compressible::alphatWallFunction;
        Prt             0.85;
        value           nonuniform List<scalar> 9(0.00023853 0.00021767 0.000214668 0.000215708 0.000219438 0.000224929 0.000231178 0.000237073 0.000243374);
    }
    inlet
    {
        type            fixedValue;
        value           uniform 1.94e-05;
    }
    outlet
    {
        type            zeroGradient;
    }
}


// ************************************************************************* //
