/*--------------------------------*- C++ -*----------------------------------*\
  =========                 |
  \\      /  F ield         | OpenFOAM: The Open Source CFD Toolbox
   \\    /   O peration     | Website:  https://openfoam.org
    \\  /    A nd           | Version:  6
     \\/     M anipulation  |
\*---------------------------------------------------------------------------*/
FoamFile
{
    version     2.0;
    format      ascii;
    class       volScalarField;
    location    "20";
    object      nut;
}
// * * * * * * * * * * * * * * * * * * * * * * * * * * * * * * * * * * * * * //

dimensions      [0 2 -1 0 0 0 0];

internalField   nonuniform List<scalar> 
459
(
0.00147982
0.00164599
0.00164501
0.0016832
0.00171723
0.00173255
0.00173869
0.00173546
0.0017188
0.00168596
0.00163745
0.00157572
0.00150271
0.00141914
0.0013243
0.000775235
0.00102207
0.00113678
0.00115369
0.00112163
0.00102709
0.000861336
0.000733637
0.000662341
0.000633992
0.000625325
0.000623948
0.000627771
0.000644122
0.000694939
0.000812861
0.000897758
0.000890491
0.000736101
0.00201336
0.00698847
0.00769697
0.00849863
0.00891474
0.00916596
0.00940538
0.00970499
0.0100585
0.0103937
0.0105869
0.010507
0.00999443
0.00870706
0.00578964
0.00142321
0.000986058
0.00103123
0.00443511
0.00625502
0.00681453
0.00645146
0.00519071
0.00318513
0.0022748
0.00183929
0.00166119
0.00159972
0.00158815
0.00161622
0.00173229
0.00208478
0.00311544
0.00389169
0.00389735
0.000921387
0.00236805
0.00933182
0.00993191
0.0106913
0.0113506
0.0116842
0.0119481
0.0123554
0.0130203
0.0139433
0.0148638
0.015415
0.0152316
0.0140056
0.0113474
0.00694537
0.00152152
0.00144612
0.00690208
0.00967565
0.010327
0.00934747
0.0064738
0.0012088
0.000852617
0.000695472
0.000641634
0.000627516
0.000626101
0.000633693
0.000672478
0.00086636
0.00333042
0.00501676
0.00521885
0.00112793
0.0024858
0.00961256
0.0095173
0.0109853
0.011833
0.0120815
0.0122249
0.0124103
0.0129485
0.014158
0.0157613
0.0172244
0.0178612
0.0172956
0.0153334
0.011786
0.00655588
0.00171771
0.00732106
0.0110126
0.0128013
0.0129271
0.0113175
0.0071127
0.00145899
0.00132517
0.00130608
0.0013128
0.00133675
0.00137201
0.0014122
0.00145016
0.00149066
0.00359448
0.00580895
0.00615171
0.0014618
0.00249841
0.00393385
0.00451569
0.00551167
0.00698122
0.00841013
0.00953688
0.0104709
0.011522
0.0129872
0.0150171
0.0173614
0.0189415
0.0192395
0.0181957
0.0160601
0.0132699
0.0109007
0.0129067
0.0146037
0.015424
0.0152719
0.0140863
0.0118561
0.00923167
0.00874959
0.00862912
0.00865355
0.00875968
0.00889675
0.00901016
0.0090403
0.00899599
0.00940357
0.00942487
0.00852937
0.00489778
0.00173116
0.00157504
0.00135938
0.00386347
0.00457703
0.00457117
0.00457011
0.00497014
0.00581853
0.00694784
0.00823188
0.00968119
0.0114415
0.0137679
0.01661
0.0190405
0.020132
0.0198192
0.0186428
0.0171862
0.0161485
0.0164884
0.0170278
0.0172652
0.0170122
0.0162307
0.0150393
0.0138381
0.0132914
0.013066
0.0130088
0.0130347
0.0130559
0.0129609
0.012644
0.0121144
0.0115726
0.0110481
0.0102614
0.00854355
0.00648839
0.00533659
0.0016481
0.00430643
0.00615247
0.00678393
0.00606048
0.00582824
0.00609518
0.00684379
0.00801791
0.0095898
0.011574
0.0139904
0.0166822
0.019032
0.020259
0.020289
0.0196116
0.0187693
0.018169
0.0180623
0.0181283
0.0180976
0.0178297
0.0172981
0.0165875
0.0158919
0.0154218
0.015134
0.0149582
0.0148185
0.0146033
0.0141475
0.013327
0.0122244
0.0111398
0.0103337
0.00977828
0.00908137
0.00785462
0.00648403
0.00182095
0.0046773
0.00695172
0.0093244
0.00752198
0.00679031
0.00679275
0.00744831
0.00868203
0.0104206
0.0125506
0.0149007
0.0171797
0.0189095
0.0196946
0.0196343
0.0191334
0.0185722
0.0181659
0.0179798
0.0178965
0.0177785
0.0175397
0.0171602
0.016684
0.0161997
0.0157886
0.015456
0.015171
0.01487
0.0144252
0.0136403
0.0124157
0.0109595
0.00964906
0.0087508
0.00823743
0.00752883
0.00631466
0.00544529
0.00183399
0.00511054
0.00609411
0.0104316
0.00811265
0.0074844
0.00782712
0.00851082
0.00983766
0.0116843
0.0137333
0.0156275
0.0171093
0.0179376
0.0180222
0.0176725
0.0171986
0.0167917
0.0165215
0.0163747
0.0162833
0.0161709
0.0159864
0.015715
0.015375
0.0150039
0.0146352
0.0142793
0.0139311
0.0135623
0.0130699
0.0122294
0.0108774
0.00915853
0.00732917
0.00565949
0.00441603
0.0036072
0.00303611
0.00259485
0.0017006
0.0134051
0.00817509
0.00746435
0.00905426
0.00987644
0.0110566
0.0125112
0.0139135
0.0149293
0.0153548
0.0151967
0.01465
0.0140956
0.0136828
0.0134283
0.0132939
0.0132301
0.0131892
0.0131264
0.0130124
0.0128376
0.0126068
0.0123311
0.0120196
0.0116798
0.0113322
0.0110226
0.0107877
0.010533
0.00996578
0.00893496
0.00776965
0.00669293
0.00583989
0.00513304
0.00448197
0.00381833
0.00156401
0.00438411
0.00503743
0.00773524
0.0089483
0.00968844
0.0103897
0.010987
0.0113098
0.0112653
0.0108486
0.0101143
0.0093989
0.00895157
0.00875147
0.00871143
0.00873625
0.00877335
0.00880701
0.00881517
0.00878519
0.00871297
0.00859658
0.0084305
0.00820492
0.00791633
0.00759273
0.00732651
0.00726415
0.00748287
0.00773916
0.00754063
0.00711836
0.00662373
0.00621752
0.0058566
0.00549475
0.00428634
0.00160108
0.00225633
0.00257217
0.00286761
0.00198329
0.0020506
0.00217358
0.00223053
0.00221433
0.00213519
0.00200625
0.00184068
0.00169658
0.00159017
0.00152781
0.0014889
0.00146715
0.00145677
0.00145241
0.00145079
0.0014498
0.00144793
0.00144429
0.00143849
0.00143033
0.00141961
0.00140613
0.00139027
0.0013745
0.00136562
0.00137439
0.00140954
0.00147911
0.00158475
0.00168172
0.00177465
0.00181036
0.00180996
0.00173737
0.00160912
0.0014563
)
;

boundaryField
{
    floor
    {
        type            nutkWallFunction;
        Cmu             0.09;
        kappa           0.41;
        E               9.8;
        value           nonuniform List<scalar> 
29
(
0.000158282
9.3971e-05
0.000123405
0.000136788
0.000138747
0.000135022
0.000123976
0.000104322
8.88981e-05
8.01701e-05
7.66774e-05
7.56082e-05
7.54398e-05
7.59168e-05
7.79502e-05
8.4229e-05
9.85917e-05
0.000108749
0.000107846
8.92111e-05
8.92111e-05
0.000111492
0.000135737
0.00017394
0.000158282
9.3971e-05
0.00012448
0.00017215
0.000202519
)
;
    }
    ceiling
    {
        type            nutkWallFunction;
        Cmu             0.09;
        kappa           0.41;
        E               9.8;
        value           nonuniform List<scalar> 
43
(
0.000261274
0.000295038
0.000326246
0.000231649
0.000238961
0.000252287
0.00025842
0.000256658
0.000248089
0.000234083
0.000215979
0.000200097
0.000188286
0.000181331
0.000176975
0.00017453
0.000173356
0.000172859
0.000172672
0.000172557
0.000172343
0.000171931
0.000171275
0.000170354
0.000169144
0.000167623
0.000165832
0.000164048
0.000163036
0.000164014
0.000167971
0.000175789
0.000187646
0.000198469
0.000208769
0.000212695
0.000212631
0.000204611
0.000190368
0.000173227
0.000554057
0.000650579
0.000481759
)
;
    }
    sWall
    {
        type            nutkWallFunction;
        Cmu             0.09;
        kappa           0.41;
        E               9.8;
        value           uniform 0.000261339;
    }
    nWall
    {
        type            nutkWallFunction;
        Cmu             0.09;
        kappa           0.41;
        E               9.8;
        value           nonuniform List<scalar> 6(0.000162328 0.000194762 0.000213853 0.00018537 0.000189506 0.000173243);
    }
    sideWalls
    {
        type            empty;
    }
    glass1
    {
        type            nutkWallFunction;
        Cmu             0.09;
        kappa           0.41;
        E               9.8;
        value           nonuniform List<scalar> 9(0.000176153 0.000235286 0.000273629 0.000286274 0.000287598 0.000429349 0.000474438 0.000511671 0.00055479);
    }
    glass2
    {
        type            nutkWallFunction;
        Cmu             0.09;
        kappa           0.41;
        E               9.8;
        value           nonuniform List<scalar> 2(0.000215383 0.000200646);
    }
    sun
    {
        type            nutkWallFunction;
        Cmu             0.09;
        kappa           0.41;
        E               9.8;
        value           nonuniform List<scalar> 
14
(
0.000175918
0.000194511
0.000194405
0.000198657
0.000202445
0.000204149
0.000204835
0.000204479
0.00020263
0.000198979
0.000193575
0.000186678
0.000178488
0.000169061
)
;
    }
    heatsource1
    {
        type            nutkWallFunction;
        Cmu             0.09;
        kappa           0.41;
        E               9.8;
        value           nonuniform List<scalar> 3(0.000204031 0.000186639 0.00016231);
    }
    heatsource2
    {
        type            nutkWallFunction;
        Cmu             0.09;
        kappa           0.41;
        E               9.8;
        value           nonuniform List<scalar> 4(0.000169542 0.00011911 0.00011911 0.000180608);
    }
    Table_master
    {
        type            nutkWallFunction;
        Cmu             0.09;
        kappa           0.41;
        E               9.8;
        value           nonuniform List<scalar> 9(0.000145076 0.000103256 8.42316e-05 7.76214e-05 7.58828e-05 7.57112e-05 7.66568e-05 8.14635e-05 0.000105035);
    }
    Table_slave
    {
        type            nutkWallFunction;
        Cmu             0.09;
        kappa           0.41;
        E               9.8;
        value           nonuniform List<scalar> 9(0.000173643 0.000158458 0.000156272 0.000157029 0.000159745 0.000163744 0.000168295 0.000172589 0.00017718);
    }
    inlet
    {
        type            calculated;
        value           uniform 3.3541e-05;
    }
    outlet
    {
        type            calculated;
        value           nonuniform List<scalar> 2(0.00225633 0.00257217);
    }
}


// ************************************************************************* //
