/*--------------------------------*- C++ -*----------------------------------*\
  =========                 |
  \\      /  F ield         | OpenFOAM: The Open Source CFD Toolbox
   \\    /   O peration     | Website:  https://openfoam.org
    \\  /    A nd           | Version:  6
     \\/     M anipulation  |
\*---------------------------------------------------------------------------*/
FoamFile
{
    version     2.0;
    format      ascii;
    class       surfaceScalarField;
    location    "20";
    object      phi;
}
// * * * * * * * * * * * * * * * * * * * * * * * * * * * * * * * * * * * * * //

dimensions      [1 0 -1 0 0 0 0];

internalField   nonuniform List<scalar> 
852
(
-0.00299468
0.00305246
-0.00390835
0.000913747
-0.00417068
0.000262397
-0.00419177
2.11472e-05
-0.00409175
-9.99619e-05
-0.00390197
-0.000189718
-0.00361826
-0.000283632
-0.00324364
-0.000374534
-0.00280261
-0.000440932
-0.00233234
-0.000470173
-0.00186702
-0.000465233
-0.00142584
-0.000441103
-0.0010073
-0.000418472
-0.000569689
-0.000437575
-0.000567269
-0.000226885
0.000230485
-6.56021e-05
-0.000161254
0.000141449
-0.000207031
0.000300058
-0.000158592
0.000436597
-0.000136522
0.000528714
-9.21013e-05
0.000520099
8.63428e-06
0.000485112
3.50104e-05
0.000463498
2.16428e-05
0.000453956
9.57306e-06
0.000448873
5.11542e-06
0.00044321
5.69554e-06
0.000432337
1.0906e-05
0.000409019
2.33509e-05
0.000370185
3.88668e-05
0.000401049
-3.083e-05
0.000480612
-7.95327e-05
0.000476382
4.25788e-06
0.000480109
-0.00215174
0.00535683
-0.0029259
0.00168801
-0.00311521
0.000451801
-0.00310226
8.27983e-06
-0.0030748
-0.000127333
-0.00301824
-0.000246185
-0.00288057
-0.000421186
-0.00264934
-0.000605619
-0.00234676
-0.00074336
-0.00200772
-0.000809057
-0.00166617
-0.000806628
-0.00134194
-0.00076522
-0.00104541
-0.000714916
-0.000803797
-0.000679132
-0.000719912
-0.000651122
-0.00023456
-0.000485385
-0.000234601
0.00033612
-9.68732e-05
0.000264247
-8.93528e-05
0.000216706
-0.000159474
0.000258302
-0.000200175
0.000350719
-0.00022893
0.000446388
-0.000187761
0.000460389
-5.35579e-06
0.000455206
4.02069e-05
0.000454937
2.19261e-05
0.000455816
8.70655e-06
0.000456369
4.57394e-06
0.000456205
5.87015e-06
0.000454527
1.25955e-05
0.000452264
2.56262e-05
0.000430387
6.07577e-05
0.000428768
-2.91962e-05
0.000336092
1.31606e-05
0.000149833
0.000190539
0.000639444
-0.00154645
0.00713711
-0.00179602
0.00193774
-0.00154768
0.000203616
-0.00136482
-0.000174417
-0.00148866
-3.32339e-06
-0.0016828
-5.18714e-05
-0.00178652
-0.000317273
-0.00177003
-0.000621896
-0.00165495
-0.000858189
-0.00147712
-0.000986643
-0.00127722
-0.00100631
-0.00107629
-0.000965979
-0.000885525
-0.00090556
-0.000716035
-0.00084854
-0.000572562
-0.000794543
-0.000350863
-0.000707052
-0.000585443
9.39098e-05
-0.000179473
0.000104915
-0.000100344
8.86979e-05
-0.000143246
0.000103984
-0.000215453
0.00016635
-0.000291289
0.000378973
-0.000400378
0.00037378
0.00041415
0.000436238
0.000445105
0.000449839
0.000455869
0.000468624
0.000494411
0.00055533
0.000720237
-0.000194092
0.000564804
0.000168608
0.000194859
0.000560504
0.000847929
-0.000303598
0.00775399
0.000732759
0.000901602
0.00195743
-0.00102084
0.00196498
-0.000181699
0.0014253
0.00053672
0.000736189
0.000637634
9.60156e-05
0.000323297
-0.000351844
-0.000173698
-0.000593173
-0.000616478
-0.000698931
-0.000880499
-0.000718884
-0.000986023
-0.000686291
-0.00099833
-0.000628621
-0.000963064
-0.000566347
-0.000910707
-0.00051792
-0.000842904
-0.000486436
-0.000738496
-0.000528447
-0.000543408
-0.000281432
-0.00023531
-0.000222045
-0.00023885
-0.000152342
-0.000170039
-0.000118956
-0.000176625
-0.000124827
-0.000209576
-0.000178593
-0.000237518
-0.000362473
-0.000216494
-0.0002671
-9.55253e-05
-0.000187218
-8.00343e-05
-8.79633e-05
-9.94058e-05
4.96206e-05
-0.000137733
0.000243491
-0.000194016
0.000503314
-0.000259963
0.000826407
-0.000323225
0.00118512
-0.000358839
0.00150853
-0.000323533
0.0014596
-0.000145129
0.00133701
0.000291224
0.00101957
0.000877963
0.00188308
0.00785628
0.000288821
0.0103787
-0.00162055
0.00992155
-0.000563302
0.00866172
0.00107854
0.00711349
0.00208542
0.00547535
0.00227628
0.003851
0.00194813
0.0023561
0.00132178
0.00117394
0.000566329
0.000412664
-0.000118634
2.15351e-06
-0.000575018
-0.000209372
-0.000786466
-0.000314169
-0.00085805
-0.000366319
-0.000858425
-0.000400727
-0.000808418
-0.000431955
-0.000707222
-0.000430812
-0.000544525
-0.00032723
-0.000338877
-0.000289134
-0.000276935
-0.000244867
-0.000214299
-0.000225311
-0.000196174
-0.000235286
-0.000199596
-0.000270995
-0.000201805
-0.000304731
-0.000182754
-0.00025907
-0.000141182
-0.000187409
-0.000151691
-9.05923e-05
-0.000196215
4.14349e-05
-0.000269749
0.000216944
-0.000369507
0.000441309
-0.0004843
0.000715117
-0.00059699
0.00103052
-0.000674185
0.00135614
-0.000649084
0.00163873
-0.000427664
0.00188878
4.12064e-05
0.00212765
0.000639122
0.00299211
0.00101863
0.00240968
0.000582244
0.00163967
0.000769822
0.00168669
0.00945054
-0.00875808
0.0123203
-0.00449062
0.0121049
-0.000348235
0.0108362
0.00234706
0.00931531
0.00360633
0.00763465
0.00395706
0.00591291
0.00367008
0.00428202
0.00295295
0.00281693
0.00203183
0.00161333
0.00108559
0.000769739
0.000269218
0.000270727
-0.000286993
-2.66259e-06
-0.000584384
-0.000156502
-0.000704428
-0.000252432
-0.000712399
-0.000316639
-0.000642965
-0.000341945
-0.000519191
-0.000305593
-0.000375213
-0.000289602
-0.000292916
-0.000271762
-0.000232132
-0.000265863
-0.000202068
-0.00027477
-0.000190684
-0.000291637
-0.000184933
-0.000297166
-0.00017722
-0.000264775
-0.000173567
-0.000210801
-0.000205659
-0.000134588
-0.000272417
-3.19865e-05
-0.000372335
0.00010033
-0.000501796
0.000265667
-0.000649593
0.000468198
-0.000799455
0.000715134
-0.000921031
0.00101764
-0.000951488
0.00138692
-0.00079684
0.00183217
-0.000403991
0.00233852
0.000132802
0.00282224
0.000534914
0.00269312
0.000711363
0.00180927
0.00165368
0.00354553
0.00321054
-0.0115073
0.00471658
-0.00599653
0.0056913
-0.00132284
0.00550817
0.00253032
0.00528529
0.00382935
0.00474214
0.0045004
0.00398346
0.00442899
0.00312909
0.00380762
0.00228459
0.0028768
0.00153485
0.00183601
0.000924722
0.000880036
0.000483311
0.000154928
0.000192953
-0.000293717
6.19017e-06
-0.000517492
-0.000118095
-0.000588018
-0.000202158
-0.000558851
-0.000249874
-0.000471445
-0.00025893
-0.00036614
-0.000264861
-0.000286974
-0.000267424
-0.000229561
-0.000273955
-0.000195531
-0.000286161
-0.000178473
-0.000299401
-0.000171688
-0.000303559
-0.000173056
-0.000288058
-0.000189062
-0.000258225
-0.000235483
-0.000214898
-0.00031573
-0.000158213
-0.000428998
-9.04458e-05
-0.000569526
-1.45392e-05
-0.000725439
6.99263e-05
-0.000883823
0.000176139
-0.0010271
0.000332765
-0.00110795
0.000569799
-0.00103372
0.000908652
-0.000742749
0.00136303
-0.000321558
0.00188172
1.62024e-05
0.00225092
0.000342143
0.00195465
0.00194995
0.00555395
-0.00230337
-0.00868461
-0.0027714
-0.00552804
-0.00100935
-0.00308443
-4.35275e-05
0.00156476
0.000756682
0.00302938
0.00123103
0.0040263
0.00139266
0.00426766
0.00133338
0.00386732
0.00115787
0.00305294
0.000932046
0.00206259
0.000688034
0.00112472
0.000454638
0.000388803
0.000258385
-9.71662e-05
0.000104618
-0.000363553
-1.39966e-05
-0.000469307
-0.000103705
-0.000469091
-0.00016597
-0.000409151
-0.000202657
-0.000329437
-0.000228558
-0.000261062
-0.000248412
-0.000209699
-0.000267233
-0.000176703
-0.000286772
-0.000158928
-0.000305205
-0.000153249
-0.000318339
-0.000159915
-0.000322882
-0.00018451
-0.000321935
-0.00023642
-0.000318493
-0.000319156
-0.000317487
-0.000429975
-0.00033003
-0.000556935
-0.000376114
-0.000679271
-0.000480068
-0.00077973
-0.000650478
-0.000856491
-0.000862085
-0.000896099
-0.00106175
-0.000833854
-0.00119947
-0.000604911
-0.00132385
-0.000197143
-0.0015362
0.000228559
-0.0017892
0.000595129
-0.00167609
0.00183682
0.00421011
-0.00810637
-0.0136283
-0.008802
-0.00791021
-0.00495736
-0.00227944
-0.00287462
0.000946987
-0.00160528
0.00275732
-0.00075709
0.00341991
-0.000200065
0.00331089
0.000142262
0.00271135
0.000316268
0.00188933
0.000367417
0.00107417
0.000334654
0.000421977
0.000255259
-1.75128e-05
0.000160287
-0.000268429
6.52489e-05
-0.000374183
-2.09836e-05
-0.00038281
-9.23408e-05
-0.000337767
-0.000146856
-0.000274905
-0.000189522
-0.000218384
-0.000224119
-0.000175094
-0.000254511
-0.000146304
-0.000283029
-0.000130404
-0.000310336
-0.000125935
-0.000336299
-0.000133944
-0.00036174
-0.000159059
-0.00039025
-0.000207898
-0.000426221
-0.000283164
-0.000477654
-0.000378509
-0.000564949
-0.000469581
-0.000736006
-0.000508109
-0.0010801
-0.000435456
-0.00171587
-0.000220442
-0.00272346
0.000111804
-0.00405586
0.000498787
-0.00554436
0.000883739
-0.00701055
0.00126913
-0.0084943
0.00171238
-0.0098774
0.00197831
-0.00866898
0.000628507
-0.00408168
-0.00761842
0.000463046
-0.00628991
-0.00360734
-0.0046608
-0.000681596
-0.00330165
0.00139869
-0.00216779
0.00228665
-0.00125078
0.00239459
-0.000571882
0.00203322
-0.000128235
0.00144636
0.000129736
0.000816696
0.000242226
0.000309821
0.000254525
-2.96014e-05
0.000210819
-0.000224598
0.000136835
-0.000300126
5.23833e-05
-0.000298317
-2.86956e-05
-0.000256663
-9.84023e-05
-0.000205182
-0.000155162
-0.000161613
-0.000201642
-0.000128604
-0.00024157
-0.000106367
-0.000278151
-9.38137e-05
-0.000314139
-8.99389e-05
-0.00035238
-9.56934e-05
-0.000396402
-0.000115026
-0.000450166
-0.000154118
-0.000515892
-0.000217416
-0.000594204
-0.000300162
-0.00069
-0.000373724
-0.000822758
-0.000375244
-0.00102848
-0.000229557
-0.00133204
8.33771e-05
-0.00171573
0.000495803
-0.00216887
0.000952207
-0.00264342
0.0013585
-0.00299054
0.0016164
-0.00296548
0.00168744
-0.00215556
0.00116852
-0.000752846
-0.000774027
-0.00474773
-0.00196415
0.00243632
-0.00427681
-0.00129404
-0.00463837
-0.000319431
-0.00393131
0.000692257
-0.00285076
0.00120677
-0.00176563
0.00131016
-0.00087241
0.00114068
-0.000256526
0.000831059
0.000121708
0.000438863
0.000304067
0.000127728
0.000348902
-7.42714e-05
0.000309419
-0.000185017
0.00022253
-0.000213178
0.000118929
-0.00019468
1.65743e-05
-0.000154284
-7.06805e-05
-0.000117909
-0.00013783
-9.44485e-05
-0.000190755
-7.56649e-05
-0.000234884
-6.22258e-05
-0.000274537
-5.41486e-05
-0.000313823
-5.06404e-05
-0.000357412
-5.2091e-05
-0.000410994
-6.14303e-05
-0.000480526
-8.45674e-05
-0.00056947
-0.000128448
-0.000675287
-0.000194308
-0.000787603
-0.000261349
-0.000887857
-0.000274896
-0.000950696
-0.00016657
-0.000957219
9.01137e-05
-0.000867896
0.000406749
-0.000678734
0.000763332
-0.000407871
0.00108789
9.8607e-05
0.00111011
0.000808251
0.000977969
0.00152198
0.000454959
0.00148361
-0.000735477
-0.00316957
-0.00389008
-0.00598424
-0.00353398
-0.00481137
-0.00511498
-0.00440776
-0.0031862
-0.0018607
-0.000703595
0.000145369
0.00060395
0.000752994
0.000701305
0.000539665
0.000350381
0.000179892
4.99456e-05
-4.35617e-05
-0.000113586
-0.000164815
-0.000202582
-0.000232226
-0.000258289
-0.000285699
-0.000322312
-0.000381891
-0.000485151
-0.000654079
-0.00088997
-0.00113961
-0.00128154
-0.00116786
-0.000739035
4.50235e-05
0.0011522
0.00228093
0.00327734
0.00375135
0.0030362
)
;

boundaryField
{
    floor
    {
        type            calculated;
        value           nonuniform List<scalar> 
29
(
0
0
0
0
0
0
0
0
0
0
0
0
0
0
0
0
0
0
0
0
-3.69667e-06
-9.46168e-06
-1.35858e-05
-1.5556e-05
-2.40572e-06
-3.55656e-06
-8.71844e-06
-1.1292e-05
-1.16913e-05
)
;
    }
    ceiling
    {
        type            calculated;
        value           nonuniform List<scalar> 
43
(
-1.61417e-05
-1.47388e-05
-1.3237e-05
-1.6074e-05
-1.52513e-05
-1.43731e-05
-1.41958e-05
-1.47219e-05
-1.58431e-05
-1.74451e-05
-1.94198e-05
-2.11219e-05
-2.24622e-05
-2.33047e-05
-2.38463e-05
-2.41558e-05
-2.43088e-05
-2.4375e-05
-2.43985e-05
-2.4411e-05
-2.44346e-05
-2.44803e-05
-2.45532e-05
-2.46558e-05
-2.47907e-05
-2.496e-05
-2.51562e-05
-2.53393e-05
-2.54e-05
-2.51669e-05
-2.45184e-05
-2.33959e-05
-2.18599e-05
-2.04745e-05
-1.90184e-05
-1.83938e-05
-1.82254e-05
-1.88337e-05
-2.01151e-05
-2.1467e-05
-4.93533e-06
-5.55057e-06
-8.38083e-06
)
;
    }
    sWall
    {
        type            calculated;
        value           uniform -0.000198355;
    }
    nWall
    {
        type            calculated;
        value           nonuniform List<scalar> 6(-4.71908e-05 -4.954e-05 -5.37392e-05 -8.65933e-05 -9.43429e-05 -0.000111701);
    }
    sideWalls
    {
        type            empty;
        value           nonuniform 0();
    }
    glass1
    {
        type            calculated;
        value           nonuniform List<scalar> 9(-5.76974e-05 -0.000152537 -0.000233706 -0.000313033 -0.000390823 -0.000403975 -0.000460936 -0.000518941 -0.00057281);
    }
    glass2
    {
        type            calculated;
        value           nonuniform List<scalar> 2(-0.000332223 -0.000377054);
    }
    sun
    {
        type            calculated;
        value           uniform 0;
    }
    heatsource1
    {
        type            calculated;
        value           nonuniform List<scalar> 3(2.05293e-07 2.05671e-07 2.06117e-07);
    }
    heatsource2
    {
        type            calculated;
        value           nonuniform List<scalar> 4(5.15954e-08 5.17335e-08 0 0);
    }
    Table_master
    {
        type            calculated;
        value           nonuniform List<scalar> 9(-1.54965e-07 -1.55101e-07 -1.55121e-07 -1.55129e-07 -1.55131e-07 -1.5513e-07 -1.55123e-07 -1.55106e-07 -1.55015e-07);
    }
    Table_slave
    {
        type            calculated;
        value           nonuniform List<scalar> 9(1.54821e-07 1.54982e-07 1.55014e-07 1.55029e-07 1.54989e-07 1.54895e-07 1.54778e-07 1.5465e-07 1.54495e-07);
    }
    inlet
    {
        type            calculated;
        value           uniform -0.000754164;
    }
    outlet
    {
        type            calculated;
        value           nonuniform List<scalar> 2(0.00410532 0.0021096);
    }
}


// ************************************************************************* //
