/*--------------------------------*- C++ -*----------------------------------*\
  =========                 |
  \\      /  F ield         | OpenFOAM: The Open Source CFD Toolbox
   \\    /   O peration     | Website:  https://openfoam.org
    \\  /    A nd           | Version:  6
     \\/     M anipulation  |
\*---------------------------------------------------------------------------*/
FoamFile
{
    version     2.0;
    format      ascii;
    class       volScalarField;
    location    "20";
    object      T;
}
// * * * * * * * * * * * * * * * * * * * * * * * * * * * * * * * * * * * * * //

dimensions      [0 0 0 1 0 0 0];

internalField   nonuniform List<scalar> 
459
(
302.184
301.896
301.867
301.848
301.827
301.803
301.777
301.75
301.723
301.698
301.678
301.663
301.654
301.652
301.66
301.699
301.657
301.646
301.643
301.643
301.645
301.65
301.654
301.656
301.657
301.657
301.657
301.657
301.657
301.655
301.652
301.651
301.658
301.692
302.389
302.044
302.017
301.998
301.967
301.929
301.888
301.844
301.797
301.75
301.71
301.678
301.656
301.642
301.632
301.621
301.614
301.667
301.639
301.629
301.625
301.624
301.624
301.625
301.625
301.625
301.624
301.624
301.624
301.624
301.625
301.626
301.628
301.631
301.639
301.673
302.607
302.219
302.213
302.203
302.149
302.09
302.031
301.966
301.895
301.822
301.756
301.705
301.67
301.648
301.633
301.624
301.619
301.638
301.626
301.621
301.619
301.618
301.617
301.617
301.616
301.615
301.615
301.615
301.615
301.615
301.615
301.618
301.624
301.629
301.636
301.661
302.885
302.457
302.531
302.487
302.417
302.334
302.241
302.141
302.037
301.923
301.82
301.741
301.689
301.656
301.637
301.626
301.622
301.626
301.621
301.619
301.617
301.616
301.615
301.614
301.611
301.61
301.61
301.611
301.612
301.614
301.617
301.622
301.628
301.633
301.637
301.641
301.653
303.203
302.975
302.898
302.833
302.74
302.634
302.524
302.399
302.242
302.067
301.906
301.783
301.709
301.665
301.641
301.628
301.621
301.619
301.617
301.616
301.615
301.614
301.613
301.612
301.612
301.611
301.612
301.613
301.615
301.619
301.625
301.635
301.645
301.654
301.658
301.658
301.66
301.663
301.667
301.697
302.802
302.566
302.549
302.571
302.594
302.591
302.557
302.49
302.378
302.204
301.997
301.829
301.728
301.673
301.644
301.629
301.621
301.617
301.615
301.614
301.614
301.613
301.613
301.612
301.612
301.612
301.613
301.615
301.618
301.624
301.634
301.649
301.668
301.685
301.695
301.695
301.694
301.696
301.695
301.709
302.48
302.05
302.036
302.205
302.361
302.454
302.486
302.459
302.363
302.196
301.999
301.836
301.733
301.675
301.644
301.629
301.621
301.617
301.615
301.614
301.613
301.613
301.613
301.612
301.612
301.613
301.614
301.617
301.621
301.63
301.645
301.668
301.699
301.73
301.75
301.756
301.751
301.747
301.737
301.735
302.249
301.764
301.813
302.132
302.319
302.408
302.437
302.401
302.29
302.12
301.944
301.808
301.721
301.67
301.642
301.628
301.62
301.617
301.615
301.614
301.614
301.613
301.613
301.613
301.613
301.614
301.615
301.619
301.625
301.637
301.658
301.693
301.74
301.788
301.819
301.829
301.83
301.83
301.838
301.935
302.056
301.669
301.656
302.119
302.289
302.354
302.361
302.304
302.178
302.017
301.873
301.768
301.7
301.66
301.638
301.626
301.62
301.617
301.616
301.615
301.615
301.614
301.614
301.614
301.614
301.615
301.617
301.621
301.628
301.642
301.67
301.718
301.786
301.854
301.902
301.931
301.949
301.967
301.989
302.037
301.16
301.996
302.18
302.241
302.233
302.167
302.053
301.922
301.808
301.729
301.679
301.65
301.634
301.625
301.62
301.618
301.617
301.617
301.616
301.616
301.616
301.616
301.616
301.617
301.619
301.622
301.629
301.642
301.667
301.707
301.762
301.822
301.87
301.898
301.908
301.903
301.869
301.843
301.612
301.951
302.043
302.087
302.079
302.024
301.936
301.838
301.754
301.696
301.661
301.642
301.631
301.626
301.623
301.622
301.621
301.621
301.62
301.62
301.62
301.62
301.621
301.621
301.623
301.626
301.631
301.641
301.659
301.687
301.727
301.775
301.822
301.853
301.866
301.857
301.825
301.826
301.726
301.7
301.731
301.876
301.91
301.928
301.92
301.882
301.824
301.759
301.701
301.669
301.652
301.642
301.638
301.636
301.635
301.635
301.635
301.635
301.635
301.635
301.635
301.635
301.635
301.636
301.637
301.638
301.642
301.648
301.658
301.674
301.697
301.728
301.774
301.797
301.808
301.805
301.796
301.815
)
;

boundaryField
{
    floor
    {
        type            wallHeatTransfer;
        Tinf            uniform 305.2;
        alphaWall       uniform 0.24;
        value           nonuniform List<scalar> 
29
(
301.978
302.169
302.045
302.005
301.998
302.006
302.033
302.092
302.15
302.189
302.206
302.212
302.212
302.21
302.2
302.17
302.112
302.079
302.088
302.181
302.181
302.091
302.021
301.948
301.978
302.169
302.051
301.937
301.888
)
;
    }
    ceiling
    {
        type            wallHeatTransfer;
        Tinf            uniform 303.2;
        alphaWall       uniform 0.24;
        value           nonuniform List<scalar> 
43
(
301.812
301.779
301.801
301.962
301.992
302.005
301.995
301.96
301.908
301.852
301.805
301.782
301.772
301.768
301.766
301.766
301.766
301.766
301.766
301.766
301.766
301.766
301.767
301.767
301.769
301.77
301.772
301.775
301.778
301.783
301.79
301.8
301.814
301.837
301.876
301.895
301.906
301.906
301.904
301.93
302.09
301.707
301.665
)
;
    }
    sWall
    {
        type            wallHeatTransfer;
        Tinf            uniform 315.2;
        alphaWall       uniform 0.36;
        value           uniform 302.883;
    }
    nWall
    {
        type            wallHeatTransfer;
        Tinf            uniform 307.2;
        alphaWall       uniform 0.36;
        value           nonuniform List<scalar> 6(302.394 302.311 302.29 302.454 302.428 302.463);
    }
    sideWalls
    {
        type            empty;
    }
    glass1
    {
        type            wallHeatTransfer;
        Tinf            uniform 315.2;
        alphaWall       uniform 4.3;
        value           nonuniform List<scalar> 9(310.284 309.537 309.191 309.194 309.337 307.962 307.475 307.108 306.746);
    }
    glass2
    {
        type            wallHeatTransfer;
        Tinf            uniform 307.2;
        alphaWall       uniform 4.3;
        value           nonuniform List<scalar> 2(304.96 305.086);
    }
    sun
    {
        type            wallHeatTransfer;
        Tinf            uniform 305.2;
        alphaWall       uniform 0.24;
        value           nonuniform List<scalar> 
14
(
302.433
302.146
302.119
302.097
302.074
302.05
302.025
302.001
301.978
301.959
301.946
301.94
301.943
301.954
)
;
    }
    heatsource1
    {
        type            fixedGradient;
        gradient        uniform 0;
    }
    heatsource2
    {
        type            fixedGradient;
        gradient        uniform 0;
    }
    Table_master
    {
        type            zeroGradient;
    }
    Table_slave
    {
        type            zeroGradient;
    }
    inlet
    {
        type            fixedValue;
        value           uniform 290.15;
    }
    outlet
    {
        type            zeroGradient;
    }
}


// ************************************************************************* //
