/*--------------------------------*- C++ -*----------------------------------*\
  =========                 |
  \\      /  F ield         | OpenFOAM: The Open Source CFD Toolbox
   \\    /   O peration     | Website:  https://openfoam.org
    \\  /    A nd           | Version:  6
     \\/     M anipulation  |
\*---------------------------------------------------------------------------*/
FoamFile
{
    version     2.0;
    format      ascii;
    class       volVectorField;
    location    "20";
    object      U;
}
// * * * * * * * * * * * * * * * * * * * * * * * * * * * * * * * * * * * * * //

dimensions      [0 1 -1 0 0 0 0];

internalField   nonuniform List<vector> 
459
(
(0.0261252 0.0866319 0)
(-0.168775 0.0213236 0)
(-0.175235 0.00304054 0)
(-0.180183 -0.00308068 0)
(-0.178113 -0.00658525 0)
(-0.171968 -0.00919601 0)
(-0.161648 -0.0118321 0)
(-0.147231 -0.0142651 0)
(-0.129488 -0.0158925 0)
(-0.109834 -0.0163469 0)
(-0.0897747 -0.015762 0)
(-0.070111 -0.0146984 0)
(-0.050814 -0.0139946 0)
(-0.03439 -0.0150297 0)
(-0.0374199 -0.0185319 0)
(0.0398048 0.00587798 0)
(-0.0116078 -0.00347452 0)
(0.000617162 -0.00711879 0)
(0.00934993 -0.00553972 0)
(0.0156194 -0.00470607 0)
(0.020953 -0.00316418 0)
(0.0229748 7.41306e-05 0)
(0.0217266 0.000964372 0)
(0.0202757 0.000654902 0)
(0.0195933 0.000347307 0)
(0.0193179 0.000240268 0)
(0.0191151 0.000272449 0)
(0.0187965 0.000455948 0)
(0.0180751 0.000862117 0)
(0.016353 0.0010858 0)
(0.016208 -0.00169632 0)
(0.0195359 -0.00404698 0)
(0.0267797 -0.00090949 0)
(-0.026884 0.0113195 0)
(0.180545 0.178936 0)
(-0.150388 0.0602464 0)
(-0.131403 0.0179 0)
(-0.132671 0.00186046 0)
(-0.13244 -0.00538106 0)
(-0.131357 -0.0108232 0)
(-0.127192 -0.0169363 0)
(-0.119017 -0.0229416 0)
(-0.107281 -0.0274325 0)
(-0.093285 -0.0295355 0)
(-0.0785315 -0.0293395 0)
(-0.0641177 -0.0278043 0)
(-0.0506224 -0.0260131 0)
(-0.0392787 -0.0250715 0)
(-0.0327666 -0.0258033 0)
(-0.0223303 -0.0190781 0)
(-0.00551157 -0.00904124 0)
(0.0767403 0.00355349 0)
(0.00884825 -0.00283398 0)
(0.00730817 -0.00729955 0)
(0.00969387 -0.0081797 0)
(0.0127327 -0.00856869 0)
(0.0169841 -0.00706616 0)
(0.0201622 -0.000120612 0)
(0.0200363 0.00166341 0)
(0.0194903 0.00121929 0)
(0.0194568 0.000716379 0)
(0.0195262 0.000526498 0)
(0.0195596 0.00057336 0)
(0.019582 0.000828431 0)
(0.0193248 0.00127761 0)
(0.0180156 0.00146739 0)
(0.018681 -0.00225793 0)
(0.0185324 -0.00154909 0)
(0.0212065 0.00612813 0)
(-0.0701217 0.0236403 0)
(0.321123 0.260781 0)
(-0.151027 0.0766364 0)
(-0.0720525 0.011982 0)
(-0.0563973 -0.00274402 0)
(-0.0604357 -0.00302772 0)
(-0.0689272 -0.00938502 0)
(-0.0754011 -0.0196103 0)
(-0.0770114 -0.0296154 0)
(-0.0738818 -0.0369781 0)
(-0.0674238 -0.0404856 0)
(-0.0591149 -0.040428 0)
(-0.0503624 -0.0383728 0)
(-0.0418476 -0.0357727 0)
(-0.0341337 -0.0336546 0)
(-0.0277758 -0.0319429 0)
(-0.0205249 -0.0275605 0)
(-0.010953 -0.0233275 0)
(0.056473 -0.00949373 0)
(0.00227825 -0.00553046 0)
(0.00265422 -0.00651811 0)
(0.0038756 -0.00901318 0)
(0.00564813 -0.0115841 0)
(0.00910036 -0.0132333 0)
(0.0183664 -0.00271728 0)
(0.0184875 -0.00101371 0)
(0.0182624 -0.00190565 0)
(0.0188085 -0.00255042 0)
(0.0191657 -0.00275615 0)
(0.0194134 -0.00272406 0)
(0.0197844 -0.00247951 0)
(0.0196503 -0.00185536 0)
(0.018944 0.00203279 0)
(0.0305685 -0.00204625 0)
(0.0301807 0.00582634 0)
(0.0313108 0.0182322 0)
(-0.0834548 0.0358144 0)
(0.514418 0.329663 0)
(-0.12452 0.0223571 0)
(0.0721584 -0.0581245 0)
(0.0889987 -0.0342519 0)
(0.0761558 -0.0073743 0)
(0.0480106 -0.0020234 0)
(0.0160797 -0.0129032 0)
(-0.0075336 -0.0281106 0)
(-0.0212397 -0.0389507 0)
(-0.0289458 -0.0446147 0)
(-0.0312585 -0.0457368 0)
(-0.0305846 -0.0441364 0)
(-0.0283443 -0.0414834 0)
(-0.0256 -0.0387623 0)
(-0.0231777 -0.0358604 0)
(-0.021444 -0.0311708 0)
(-0.0217036 -0.0207908 0)
(-0.0197612 0.0248779 0)
(-0.00728433 -0.00674841 0)
(-0.00866268 -0.00530794 0)
(-0.00577578 -0.00676644 0)
(-0.00495762 -0.00915658 0)
(-0.0061223 -0.0114327 0)
(-0.0101677 -0.0125912 0)
(-0.0156076 -0.00395918 0)
(-0.010666 -0.00328513 0)
(-0.00605658 -0.00398391 0)
(-0.00113776 -0.00526577 0)
(0.00602022 -0.00716877 0)
(0.0157015 -0.00940764 0)
(0.0281158 -0.0116249 0)
(0.0427361 -0.0129949 0)
(0.0591186 -0.0123295 0)
(0.0647217 -0.00597762 0)
(0.0618055 0.0119577 0)
(0.0597274 0.032898 0)
(-0.0222103 0.0670047 0)
(0.735244 0.346338 0)
(0.40371 0.139796 0)
(0.400711 0.0814835 0)
(0.402803 0.0865928 0)
(0.348717 0.0909461 0)
(0.27276 0.0789335 0)
(0.199773 0.0548153 0)
(0.131756 0.0234153 0)
(0.0710683 -0.00799489 0)
(0.0291414 -0.0288731 0)
(0.00603019 -0.0380218 0)
(-0.00614801 -0.0408533 0)
(-0.011991 -0.040602 0)
(-0.0149279 -0.038913 0)
(-0.0166072 -0.0360368 0)
(-0.0180457 -0.0314662 0)
(-0.0187658 -0.0244926 0)
(-0.0166646 -0.0141078 0)
(-0.0128153 -0.0118395 0)
(-0.0114133 -0.00855287 0)
(-0.00985142 -0.00808481 0)
(-0.00961608 -0.00876021 0)
(-0.0106937 -0.00928047 0)
(-0.0125331 -0.00846353 0)
(-0.012604 -0.00533625 0)
(-0.00991482 -0.00532808 0)
(-0.00619883 -0.0067036 0)
(-0.00140783 -0.00925002 0)
(0.00517527 -0.0128395 0)
(0.0137009 -0.0169522 0)
(0.0243331 -0.0209005 0)
(0.0368858 -0.0232809 0)
(0.0509651 -0.0212262 0)
(0.0644803 -0.0113669 0)
(0.07687 0.00924355 0)
(0.0920029 0.0354334 0)
(0.0918818 0.0635296 0)
(0.127014 0.0400217 0)
(0.120172 0.0358568 0)
(-0.102247 0.0589399 0)
(0.834547 -0.343995 0)
(0.445306 -0.246186 0)
(0.486322 -0.121887 0)
(0.503508 0.00336465 0)
(0.448193 0.0858267 0)
(0.367796 0.119963 0)
(0.289497 0.118682 0)
(0.216777 0.0955652 0)
(0.149936 0.0616587 0)
(0.0911818 0.0246361 0)
(0.0459727 -0.00648633 0)
(0.0188491 -0.0239727 0)
(0.00413135 -0.0317234 0)
(-0.00418085 -0.0340545 0)
(-0.00915862 -0.0329303 0)
(-0.0125455 -0.0291333 0)
(-0.0144845 -0.0230859 0)
(-0.0140818 -0.0160553 0)
(-0.0127105 -0.0125028 0)
(-0.0119729 -0.00975227 0)
(-0.01138 -0.00862345 0)
(-0.0114561 -0.00835709 0)
(-0.0121312 -0.0081935 0)
(-0.0128239 -0.00762443 0)
(-0.0123235 -0.00683052 0)
(-0.0104089 -0.00777277 0)
(-0.00759833 -0.010219 0)
(-0.00381671 -0.0140212 0)
(0.00121459 -0.0190615 0)
(0.00758733 -0.0248667 0)
(0.0154031 -0.0306717 0)
(0.0248763 -0.0350673 0)
(0.0364574 -0.0352191 0)
(0.0506036 -0.0270346 0)
(0.0681356 -0.00809148 0)
(0.0901461 0.01743 0)
(0.109115 0.0332945 0)
(0.122923 0.0263893 0)
(0.126818 0.0514197 0)
(-0.0733397 0.115367 0)
(0.690293 -0.469699 0)
(0.0482664 -0.237136 0)
(0.172713 -0.0178528 0)
(0.270154 0.119928 0)
(0.253135 0.174607 0)
(0.219747 0.191711 0)
(0.18731 0.181612 0)
(0.151864 0.151873 0)
(0.114252 0.111246 0)
(0.078892 0.0675861 0)
(0.0498555 0.0283606 0)
(0.0281367 -0.00110735 0)
(0.0131742 -0.0182617 0)
(0.00352206 -0.0260797 0)
(-0.00287065 -0.0279064 0)
(-0.00723123 -0.0258276 0)
(-0.0100324 -0.0213568 0)
(-0.0110989 -0.0161824 0)
(-0.0112617 -0.0126104 0)
(-0.011394 -0.010049 0)
(-0.0115404 -0.00862446 0)
(-0.0119525 -0.00795633 0)
(-0.0125734 -0.00765206 0)
(-0.0130499 -0.00753977 0)
(-0.0128342 -0.0079118 0)
(-0.0118286 -0.00966784 0)
(-0.0102396 -0.0129091 0)
(-0.00807576 -0.0176035 0)
(-0.00535567 -0.0235684 0)
(-0.0022106 -0.0303768 0)
(0.00126482 -0.0374817 0)
(0.00525526 -0.0438567 0)
(0.0104763 -0.0471656 0)
(0.018037 -0.0433418 0)
(0.0294527 -0.0295381 0)
(0.046953 -0.00970829 0)
(0.0702891 0.00418711 0)
(0.0923947 0.00921332 0)
(0.119348 0.0591069 0)
(-0.0638792 0.183908 0)
(0.473896 -0.416242 0)
(-0.254217 -0.223403 0)
(-0.163353 -0.108563 0)
(0.0709964 0.126939 0)
(0.0283461 0.171822 0)
(0.0469363 0.197257 0)
(0.0586111 0.195407 0)
(0.0591321 0.170659 0)
(0.0525202 0.131813 0)
(0.0432813 0.0873643 0)
(0.0335909 0.0458287 0)
(0.0238607 0.0136272 0)
(0.0148583 -0.00737277 0)
(0.00741639 -0.0185057 0)
(0.00163789 -0.0226314 0)
(-0.00281284 -0.0221786 0)
(-0.00605024 -0.0191253 0)
(-0.00807902 -0.0152328 0)
(-0.00931756 -0.0120641 0)
(-0.0102474 -0.00971455 0)
(-0.0110388 -0.00824353 0)
(-0.0118593 -0.0074663 0)
(-0.0127054 -0.00719512 0)
(-0.0134216 -0.00740742 0)
(-0.0137994 -0.00836175 0)
(-0.0138406 -0.0105608 0)
(-0.0136999 -0.0141678 0)
(-0.013519 -0.0191307 0)
(-0.013601 -0.0251143 0)
(-0.0145868 -0.031507 0)
(-0.0174047 -0.0377783 0)
(-0.022873 -0.0436414 0)
(-0.0313264 -0.0480201 0)
(-0.0419891 -0.0479999 0)
(-0.0521882 -0.0403863 0)
(-0.0571932 -0.0238859 0)
(-0.057509 0.00048144 0)
(-0.0442826 0.0393029 0)
(-0.0545789 0.131382 0)
(-0.490778 0.2737 0)
(0.185564 -0.309453 0)
(-0.530973 -0.253122 0)
(-0.660989 -0.219956 0)
(-0.153737 -0.0150688 0)
(-0.163309 0.0963556 0)
(-0.0919372 0.154312 0)
(-0.0469202 0.172208 0)
(-0.0187489 0.159498 0)
(-0.000831288 0.127274 0)
(0.00984034 0.0870617 0)
(0.0148346 0.048981 0)
(0.0153542 0.018808 0)
(0.0128812 -0.0015193 0)
(0.00897925 -0.0130903 0)
(0.00477763 -0.0179617 0)
(0.000804702 -0.0183523 0)
(-0.00261731 -0.0162255 0)
(-0.00528064 -0.0132467 0)
(-0.00730443 -0.0105963 0)
(-0.00891659 -0.00857063 0)
(-0.0102747 -0.00723869 0)
(-0.0115218 -0.00651509 0)
(-0.0127181 -0.00631763 0)
(-0.0138585 -0.00668465 0)
(-0.0149358 -0.00783249 0)
(-0.0160467 -0.0100866 0)
(-0.0173632 -0.0135701 0)
(-0.0191061 -0.0180762 0)
(-0.0217983 -0.0228281 0)
(-0.0267401 -0.0263944 0)
(-0.0365099 -0.0272336 0)
(-0.0554653 -0.0245947 0)
(-0.0895405 -0.0178913 0)
(-0.141546 -0.00543476 0)
(-0.207006 0.0117068 0)
(-0.274464 0.0305622 0)
(-0.330564 0.0450384 0)
(-0.372416 0.0486664 0)
(-0.436055 0.0384108 0)
(-0.677492 0.00680791 0)
(-1.41049 -0.230011 0)
(-0.137507 -0.144366 0)
(-0.230145 -0.00305486 0)
(-0.167701 0.088675 0)
(-0.114428 0.124332 0)
(-0.0712255 0.124937 0)
(-0.0376857 0.10433 0)
(-0.0138018 0.0740142 0)
(0.00125199 0.0429887 0)
(0.00892959 0.0181826 0)
(0.0112918 0.00162494 0)
(0.0103788 -0.0077915 0)
(0.00760398 -0.0116596 0)
(0.00403358 -0.0118766 0)
(0.000379065 -0.0101597 0)
(-0.00287372 -0.00787995 0)
(-0.00554723 -0.00588152 0)
(-0.00771939 -0.00436908 0)
(-0.00953369 -0.00336689 0)
(-0.0111451 -0.00281777 0)
(-0.0126772 -0.00267887 0)
(-0.0142403 -0.00299753 0)
(-0.0159632 -0.00394298 0)
(-0.0180132 -0.00574939 0)
(-0.020526 -0.00851583 0)
(-0.0235362 -0.0119637 0)
(-0.0271349 -0.0150018 0)
(-0.0318542 -0.0154013 0)
(-0.0388358 -0.0103839 0)
(-0.0492615 0.00160623 0)
(-0.0630683 0.01904 0)
(-0.0812307 0.0369468 0)
(-0.102958 0.0528036 0)
(-0.124176 0.0664136 0)
(-0.136759 0.07738 0)
(-0.119208 0.0684943 0)
(-0.0139404 -0.0188024 0)
(-0.266406 -0.253094 0)
(-0.291049 0.0446909 0)
(-0.0791863 -0.112182 0)
(-0.199774 -0.0233797 0)
(-0.187118 0.0470746 0)
(-0.144795 0.0809424 0)
(-0.0975688 0.0873848 0)
(-0.0550688 0.0764659 0)
(-0.022454 0.0569164 0)
(-0.000878399 0.0358681 0)
(0.0105907 0.0196745 0)
(0.0149122 0.00935627 0)
(0.0146543 0.00306536 0)
(0.0116247 0.001123 0)
(0.00730967 0.00199028 0)
(0.0027714 0.00420683 0)
(-0.00133844 0.00666101 0)
(-0.0046032 0.00875063 0)
(-0.00713385 0.0104231 0)
(-0.00917096 0.011659 0)
(-0.0109292 0.0125361 0)
(-0.0125843 0.0131301 0)
(-0.0143158 0.0134157 0)
(-0.0163416 0.0132105 0)
(-0.0189199 0.0121889 0)
(-0.0222627 0.010039 0)
(-0.0264027 0.00684468 0)
(-0.0311496 0.00388597 0)
(-0.036011 0.00418146 0)
(-0.0398482 0.0111116 0)
(-0.0411489 0.0239265 0)
(-0.0388952 0.0365318 0)
(-0.0329126 0.0509491 0)
(-0.0232039 0.0638159 0)
(-0.0093572 0.0715254 0)
(0.0105705 0.0743362 0)
(0.0418547 0.0577016 0)
(0.126047 -0.0153156 0)
(-0.180402 -0.162447 0)
(0.167777 -0.17563 0)
(-0.247498 -0.0892732 0)
(-0.214006 0.0354607 0)
(-0.170146 -0.0869328 0)
(-0.22182 -0.0525179 0)
(-0.205866 -0.0176006 0)
(-0.162141 -0.000197521 0)
(-0.107768 0.000596714 0)
(-0.0551368 -0.0118306 0)
(-0.0119735 -0.0341986 0)
(0.0182583 -0.0651802 0)
(0.0302771 -0.0902599 0)
(0.0323344 -0.108616 0)
(0.0273434 -0.118713 0)
(0.0193306 -0.124944 0)
(0.0112949 -0.128644 0)
(0.00474112 -0.130439 0)
(-7.02079e-05 -0.130761 0)
(-0.00349284 -0.130298 0)
(-0.006039 -0.129799 0)
(-0.00791225 -0.129625 0)
(-0.00933066 -0.129899 0)
(-0.0104988 -0.130631 0)
(-0.011606 -0.131787 0)
(-0.012908 -0.133353 0)
(-0.0148482 -0.135355 0)
(-0.0181507 -0.137789 0)
(-0.0238283 -0.140328 0)
(-0.0328231 -0.141751 0)
(-0.0444238 -0.139777 0)
(-0.053886 -0.131972 0)
(-0.0537038 -0.115064 0)
(-0.0401085 -0.086944 0)
(-0.016241 -0.0596132 0)
(0.0289649 -0.0300308 0)
(0.0721094 -0.0247221 0)
(0.114857 -0.0288864 0)
(0.152018 -0.051143 0)
(0.185752 -0.0936384 0)
(-0.124634 -0.166177 0)
)
;

boundaryField
{
    floor
    {
        type            noSlip;
    }
    ceiling
    {
        type            noSlip;
    }
    sWall
    {
        type            noSlip;
    }
    nWall
    {
        type            noSlip;
    }
    sideWalls
    {
        type            empty;
    }
    glass1
    {
        type            noSlip;
    }
    glass2
    {
        type            noSlip;
    }
    sun
    {
        type            noSlip;
    }
    heatsource1
    {
        type            noSlip;
    }
    heatsource2
    {
        type            noSlip;
    }
    Table_master
    {
        type            noSlip;
    }
    Table_slave
    {
        type            noSlip;
    }
    inlet
    {
        type            fixedValue;
        value           uniform (0.1 0 0);
    }
    outlet
    {
        type            zeroGradient;
    }
}


// ************************************************************************* //
