/*--------------------------------*- C++ -*----------------------------------*\
  =========                 |
  \\      /  F ield         | OpenFOAM: The Open Source CFD Toolbox
   \\    /   O peration     | Website:  https://openfoam.org
    \\  /    A nd           | Version:  6
     \\/     M anipulation  |
\*---------------------------------------------------------------------------*/
FoamFile
{
    version     2.0;
    format      ascii;
    class       surfaceScalarField;
    location    "2700";
    object      phi;
}
// * * * * * * * * * * * * * * * * * * * * * * * * * * * * * * * * * * * * * //

dimensions      [1 0 -1 0 0 0 0];

internalField   nonuniform List<scalar> 
852
(
-0.00304131
0.0031011
-0.00412363
0.00108231
-0.00492703
0.000803402
-0.00553957
0.000612547
-0.0059295
0.000389922
-0.00607298
0.000143482
-0.005949
-0.000123981
-0.00554733
-0.000401667
-0.00489461
-0.000652723
-0.0040566
-0.000838005
-0.00312435
-0.000932255
-0.0021943
-0.000930045
-0.00135197
-0.000842334
-0.000637307
-0.000714661
-0.000635245
-0.00080782
0.000811507
-0.000467021
-0.0003408
0.000209357
-0.000676378
0.000747365
-0.000538008
0.00110904
-0.000361671
0.00133654
-0.000227504
0.00146038
-0.000123838
0.00152076
-6.03858e-05
0.00155426
-3.34977e-05
0.00157457
-2.03093e-05
0.00158575
-1.11753e-05
0.00158916
-3.40974e-06
0.00158296
6.19712e-06
0.00155867
2.42851e-05
0.00149269
6.59833e-05
0.00134564
0.000147046
0.00110484
0.000240808
0.000807855
0.000296981
0.000812839
-0.00216487
0.00542662
-0.00321093
0.00212837
-0.00403253
0.00162501
-0.0046338
0.00121382
-0.0050165
0.000772615
-0.00516539
0.000292372
-0.0050569
-0.00023247
-0.00468738
-0.000771182
-0.0040957
-0.0012444
-0.00335405
-0.00157965
-0.0025492
-0.0017371
-0.00176146
-0.00171779
-0.00106238
-0.00154141
-0.00052787
-0.00124917
-0.00029878
-0.000864335
5.5669e-05
-0.0003545
5.56175e-05
0.000376285
0.000445834
0.000816461
-0.000780976
0.00108841
-0.000948324
0.00132341
-0.000773012
0.00150387
-0.000542125
0.00161317
-0.00033681
0.00163092
-0.000141586
0.00163527
-6.47311e-05
0.00164056
-3.87968e-05
0.00164501
-2.47546e-05
0.0016478
-1.39681e-05
0.0016491
-4.70636e-06
0.00164816
7.13338e-06
0.00164101
3.14332e-05
0.001597
0.000109995
0.00140968
0.000334374
0.00108953
0.000560953
0.000693539
0.000692973
0.00151903
-0.00151068
0.00718273
-0.0024092
0.00302689
-0.00313285
0.00234865
-0.00364254
0.00172351
-0.00396936
0.00109944
-0.00409219
0.000415197
-0.00396734
-0.000357319
-0.00359484
-0.00114368
-0.00303729
-0.00180196
-0.0023758
-0.00224114
-0.00169005
-0.00242285
-0.00103751
-0.00237034
-0.000465336
-0.00211358
-9.07576e-06
-0.00170543
0.000292988
-0.0011664
0.000445793
-0.000507306
0.000501411
0.00161358
-0.00115644
0.00184531
-0.00101271
0.00180367
-0.00090668
0.00179535
-0.000764691
0.00182028
-0.00056706
0.00184524
-0.000361762
0.0017038
0.00163923
0.00160058
0.00157598
0.00156217
0.00155762
0.0015649
0.00159649
0.00170664
0.00139866
0.000642358
0.00103097
0.000928634
0.00058358
0.00114037
0.00212173
-0.0010501
0.00855045
-0.00175842
0.00373521
-0.00222951
0.00281975
-0.00255326
0.00204725
-0.00275003
0.00129621
-0.00277796
0.000443127
-0.00257245
-0.000562827
-0.0021659
-0.00155024
-0.00165123
-0.00231662
-0.00110473
-0.00278763
-0.000583705
-0.00294388
-0.000112801
-0.00284124
0.00029442
-0.00252081
0.000636823
-0.00204783
0.000950488
-0.00148006
0.00132264
-0.000879459
0.00218824
-0.000364184
0.00264099
-0.000442528
0.00221291
-0.000728363
0.0020681
-0.000867903
0.00194302
-0.000781592
0.00183615
-0.000657828
0.00177737
-0.000508282
0.00174819
-0.000332574
0.00189129
-0.000143254
0.00198172
-9.05892e-05
0.00205295
-7.13814e-05
0.00210468
-5.18881e-05
0.0021207
-1.61736e-05
0.00207861
4.19426e-05
0.00195363
0.000124824
0.0017132
0.000240276
0.00130038
0.00041267
0.00114826
0.000794479
0.000822451
0.00125444
0.000330394
0.00163242
0.00247711
-0.000732139
0.00966154
-0.00126618
0.00426925
-0.0013494
0.00290297
-0.0013847
0.00208256
-0.00136495
0.00127647
-0.00118032
0.000258493
-0.000810375
-0.00093277
-0.00037198
-0.00198863
4.73881e-05
-0.00273599
0.00040312
-0.00314337
0.000684895
-0.00322566
0.000898368
-0.00305471
0.0010663
-0.00268874
0.00121364
-0.00219518
0.00137379
-0.00164021
0.0015936
-0.00109927
0.0019136
-0.000684186
0.00203295
-0.000561873
0.00193297
-0.000628383
0.00174133
-0.00067627
0.00157901
-0.000619265
0.0014463
-0.000525117
0.00135592
-0.000417909
0.00132295
-0.0002996
0.00137599
-0.000196292
0.00143679
-0.000151392
0.00150055
-0.000135145
0.00156217
-0.000113505
0.00160862
-6.26183e-05
0.0016184
3.21618e-05
0.00157128
0.000171941
0.00145664
0.000354914
0.001277
0.000592309
0.00111693
0.000954555
0.000940589
0.00143078
0.000539513
0.0020335
0.000413961
0.00260266
-0.001116
0.00152976
-0.00157926
0.000463051
-0.00152524
-0.000635078
0.0107274
-0.00099346
0.00462763
-0.000533682
0.00244319
-9.75492e-05
0.00164642
0.000295684
0.000883233
0.000808953
-0.000254776
0.00133383
-0.00145765
0.00171658
-0.00237138
0.00193572
-0.00295513
0.00201286
-0.0032205
0.00198928
-0.00320209
0.00189468
-0.0029601
0.00176685
-0.00256091
0.00164282
-0.00207115
0.00155374
-0.00155114
0.00152112
-0.00106664
0.00153446
-0.000697532
0.00149015
-0.000517563
0.00134737
-0.000485603
0.00115061
-0.000479501
0.000975286
-0.000443945
0.000840604
-0.000390436
0.000754433
-0.000331739
0.000726732
-0.000271899
0.000756628
-0.000226187
0.000816595
-0.000211359
0.00089258
-0.00021113
0.000978155
-0.000199081
0.00106605
-0.000150512
0.00113979
-4.15815e-05
0.00118093
0.000130802
0.00119078
0.000345069
0.00117757
0.000605517
0.00119136
0.000940766
0.0012855
0.00133663
0.00146739
0.00185161
0.00195969
0.00211036
0.00224096
0.00124849
0.00185129
0.000852722
0.000390761
-0.000661655
0.011867
-0.000513324
0.0044793
0.000720762
0.0012091
0.0016466
0.00072059
0.00250597
2.38576e-05
0.00329838
-0.00104719
0.00378188
-0.00194114
0.0039563
-0.00254581
0.00386843
-0.00286725
0.00358304
-0.00293511
0.00317177
-0.00279082
0.00269827
-0.0024866
0.00222029
-0.00208294
0.00178501
-0.00163586
0.00142137
-0.0011875
0.00114271
-0.000787985
0.000940491
-0.000495313
0.000765856
-0.000342928
0.000580908
-0.000300655
0.00039689
-0.000295483
0.000241531
-0.000288586
0.000127687
-0.000276592
5.96609e-05
-0.000263713
4.08468e-05
-0.000253085
6.64487e-05
-0.000251789
0.000120363
-0.000265274
0.000191466
-0.000282233
0.000277972
-0.000285587
0.000383995
-0.000256535
0.000514101
-0.000171687
0.000647963
-3.06101e-06
0.000776238
0.000216795
0.000916808
0.000464948
0.00110932
0.000748255
0.00140677
0.00103918
0.0018836
0.00137478
0.00262301
0.00137095
0.00322031
0.000651199
0.00328429
0.000788741
0.00374438
0.00277241
0.00962991
0.00355436
0.00369735
0.00418227
0.000581193
0.00519469
-0.000291835
0.00612105
-0.000902504
0.00657737
-0.00150351
0.00659019
-0.00195396
0.00623242
-0.00218804
0.00559415
-0.00222899
0.00477568
-0.00211664
0.00387593
-0.00189107
0.00297746
-0.00158813
0.00214694
-0.00125242
0.0014311
-0.000920021
0.000849012
-0.000605407
0.000409569
-0.000348541
0.000103704
-0.000189448
-0.000112023
-0.000127202
-0.000283172
-0.000129506
-0.000426447
-0.000152208
-0.000541066
-0.000173967
-0.000624985
-0.000192673
-0.000678321
-0.000210377
-0.000702097
-0.000229309
-0.000701526
-0.00025236
-0.000686866
-0.000279934
-0.000664127
-0.000304972
-0.000631985
-0.000317728
-0.000580646
-0.000307874
-0.000489083
-0.000263251
-0.000326448
-0.000165695
-0.000123061
1.34078e-05
0.000105073
0.000236813
0.000387723
0.000465605
0.000731477
0.000695428
0.0011878
0.000918454
0.00167047
0.000888285
0.00180599
0.00051568
0.000972637
0.0016221
0.00501027
0.0102229
0.0139164
0.0129812
0.00151643
0.0123588
0.000330553
0.0115998
-0.000143503
0.0105532
-0.000456903
0.00923839
-0.000639172
0.00776839
-0.000718038
0.00624491
-0.000705512
0.00475564
-0.000627372
0.00337957
-0.000515004
0.00216623
-0.000374786
0.00114903
-0.000235224
0.000336529
-0.000107516
-0.000263002
-5.8767e-06
-0.000650004
3.84611e-05
-0.000877219
3.77671e-05
-0.00102109
1.66671e-05
-0.00113341
-1.71854e-05
-0.00123116
-5.44569e-05
-0.00131636
-8.87619e-05
-0.00138925
-0.000119788
-0.00145168
-0.000147941
-0.00150696
-0.000174037
-0.00156087
-0.000198447
-0.00162173
-0.000219072
-0.00169713
-0.000229575
-0.00179445
-0.00022041
-0.0019229
-0.000179424
-0.00209451
-9.16382e-05
-0.00231612
5.59158e-05
-0.00257398
0.000271265
-0.00291063
0.000573468
-0.00342671
0.000981684
-0.00421956
0.00148828
-0.00534438
0.00204328
-0.00690902
0.00245292
-0.00876326
0.00236992
-0.00813451
0.000993351
-0.00279847
0.00437516
0.00337774
0.00335717
0.00134855
0.0036454
-0.000431736
0.00357988
-0.00039138
0.00311842
-0.000177711
0.00242899
-2.86083e-05
0.00162444
9.90288e-05
0.000798958
0.000198115
2.83174e-05
0.000255637
-0.000616768
0.000270299
-0.00109826
0.00024627
-0.00142408
0.000218301
-0.00161487
0.000184913
-0.0017201
0.000143697
-0.00178601
0.00010367
-0.00183775
6.84157e-05
-0.00189161
3.6673e-05
-0.00195389
7.81889e-06
-0.00202276
-1.98927e-05
-0.00209481
-4.77381e-05
-0.00217152
-7.12291e-05
-0.00225577
-8.97872e-05
-0.00235109
-0.000103121
-0.00246051
-0.000109661
-0.00258437
-0.000105709
-0.0027193
-8.54776e-05
-0.00285663
-4.20984e-05
-0.00298145
3.31825e-05
-0.00308586
0.000160322
-0.00317433
0.000359743
-0.00325741
0.000656548
-0.00334707
0.00107134
-0.00344713
0.00158833
-0.00349858
0.00209473
-0.00341017
0.0023645
-0.00298361
0.00194336
-0.00165566
-0.000334598
-0.00436931
-0.000795419
0.00425747
-0.000353981
0.000907109
-0.00103313
0.000247411
-0.00155398
0.000129471
-0.00190755
0.000175862
-0.00216975
0.000233588
-0.00235518
0.00028446
-0.00248311
0.000326046
-0.00256551
0.000338035
-0.00260836
0.000313155
-0.0026242
0.000262102
-0.00261249
0.000206596
-0.00258177
0.000154195
-0.00254673
0.000108654
-0.00251683
7.3768e-05
-0.00249677
4.83564e-05
-0.00248911
2.90112e-05
-0.00249424
1.29531e-05
-0.00251048
-3.6594e-06
-0.0025377
-2.05181e-05
-0.00257506
-3.38654e-05
-0.00262177
-4.30795e-05
-0.00267682
-4.80649e-05
-0.00273846
-4.80295e-05
-0.00280308
-4.10895e-05
-0.00286443
-2.412e-05
-0.00291371
7.17669e-06
-0.00293575
5.52223e-05
-0.0029074
0.000131976
-0.00280164
0.000253986
-0.00258312
0.000438022
-0.00222321
0.000711434
-0.00172464
0.00108976
-0.00107094
0.00144104
-4.11012e-05
0.00133466
0.00127725
0.000625012
0.00159429
-0.00065164
-0.00268166
-0.0078943
-0.0111534
-0.00684071
-0.00590551
-0.00563893
-0.00549405
-0.00530512
-0.00506011
-0.00476537
-0.00442977
-0.00408259
-0.00376037
-0.00348905
-0.00327296
-0.00310897
-0.00299023
-0.00290612
-0.00284718
-0.00280741
-0.00278357
-0.00277628
-0.00278585
-0.00280883
-0.00284113
-0.00287856
-0.00291612
-0.00294695
-0.00296105
-0.00294412
-0.00287944
-0.00273835
-0.0024756
-0.0020292
-0.00130979
-0.000212491
0.00123545
0.0025767
0.00320827
0.00256346
)
;

boundaryField
{
    floor
    {
        type            calculated;
        value           nonuniform List<scalar> 
29
(
0
0
0
0
0
0
0
0
0
0
0
0
0
0
0
0
0
0
0
0
-4.98419e-06
-1.26549e-05
-1.91161e-05
-2.49901e-05
-2.0629e-06
-3.68666e-06
-1.06116e-05
-1.13067e-05
-1.02232e-05
)
;
    }
    ceiling
    {
        type            calculated;
        value           nonuniform List<scalar> 
43
(
-5.92109e-05
-5.69873e-05
-5.52033e-05
-2.80965e-05
-1.91667e-05
-1.54052e-05
-1.3068e-05
-1.14243e-05
-1.02871e-05
-9.5446e-06
-9.14828e-06
-9.06677e-06
-9.22241e-06
-9.49327e-06
-9.79317e-06
-1.00832e-05
-1.03468e-05
-1.05767e-05
-1.07621e-05
-1.08896e-05
-1.09496e-05
-1.09425e-05
-1.08843e-05
-1.07816e-05
-1.06402e-05
-1.04654e-05
-1.02577e-05
-1.00215e-05
-9.75486e-06
-9.45165e-06
-9.11963e-06
-8.7624e-06
-8.38128e-06
-7.97438e-06
-7.53573e-06
-6.90037e-06
-6.59345e-06
-6.56403e-06
-6.82465e-06
-6.46956e-06
6.31127e-06
3.88487e-06
-8.43124e-05
)
;
    }
    sWall
    {
        type            calculated;
        value           uniform -0.000279263;
    }
    nWall
    {
        type            calculated;
        value           nonuniform List<scalar> 6(-5.42274e-05 -6.47121e-05 -6.93373e-05 -8.48229e-05 -9.33571e-05 -0.00011173);
    }
    sideWalls
    {
        type            empty;
        value           nonuniform 0();
    }
    glass1
    {
        type            calculated;
        value           nonuniform List<scalar> 9(-5.97923e-05 -0.000160641 -0.000245429 -0.000317623 -0.000378959 -0.000430729 -0.000478004 -0.000535303 -0.000599337);
    }
    glass2
    {
        type            calculated;
        value           nonuniform List<scalar> 2(-0.000293247 -0.000325775);
    }
    sun
    {
        type            calculated;
        value           uniform 0;
    }
    heatsource1
    {
        type            calculated;
        value           nonuniform List<scalar> 3(2.05029e-07 2.04925e-07 2.04944e-07);
    }
    heatsource2
    {
        type            calculated;
        value           nonuniform List<scalar> 4(5.14197e-08 5.15263e-08 0 0);
    }
    Table_master
    {
        type            calculated;
        value           nonuniform List<scalar> 9(-1.53773e-07 -1.53867e-07 -1.539e-07 -1.53922e-07 -1.53937e-07 -1.53947e-07 -1.53952e-07 -1.53945e-07 -1.53911e-07);
    }
    Table_slave
    {
        type            calculated;
        value           nonuniform List<scalar> 9(1.53631e-07 1.53653e-07 1.5363e-07 1.53612e-07 1.53607e-07 1.5361e-07 1.5363e-07 1.5368e-07 1.53771e-07);
    }
    inlet
    {
        type            calculated;
        value           uniform -0.00623647;
    }
    outlet
    {
        type            calculated;
        value           nonuniform List<scalar> 2(0.00823278 0.00331607);
    }
}


// ************************************************************************* //
