/*--------------------------------*- C++ -*----------------------------------*=========                 |
  \      /  F ield         | OpenFOAM: The Open Source CFD Toolbox
   \    /   O peration     | Website:  https://openfoam.org
    \  /    A nd           | Version:  6
     \/     M anipulation  |
\*---------------------------------------------------------------------------*/
FoamFile
{
    version     2.0;
    format      ascii;
    class       volScalarField;
    location    "2700";
    object      PMV;
}
// * * * * * * * * * * * * * * * * * * * * * * * * * * * * * * * * * * * * * //

dimensions      [0 0 0 0 0 0 0];

internalField   nonuniform List<scalar> 
459
(
1.6555969525364589
1.4392530466745965
1.4130560998322024
1.3901138440217626
1.3746672677024854
1.3652849508209393
1.3626313298201584
1.3665677926647257
1.3763867732465744
1.3937196272570567
1.4189971438511944
1.4552772791781627
1.5026179207153696
1.5384438806791132
1.5427433354961055
1.6076946950730093
1.594802269710963
1.59002695760887
1.5919371042388828
1.594324746685756
1.5967123435354973
1.5950804525804159
1.5905380223791885
1.5903215713844692
1.5911447212083079
1.5925415556040121
1.5943833667380056
1.596784821433613
1.600102285129198
1.6053311964831602
1.614693256109659
1.6239276499701434
1.627269452654284
1.6396810179547716
1.6178599121804904
1.4602740334560405
1.452123590015077
1.4313059927740281
1.4185963311279923
1.4112182593117115
1.409462408200812
1.4115263952356212
1.4161617536874236
1.4245927882788265
1.439388839780821
1.463573782642755
1.4979688437943444
1.5298445804885565
1.5308000837720077
1.5308000837720077
1.5308000837720077
1.5722642804888498
1.5852514648019427
1.5814309416993018
1.5829374668711884
1.5770383585458096
1.572545261782095
1.5710170663199914
1.572008258298924
1.5731221832878428
1.5739048778163705
1.5740579073482597
1.5747668197344535
1.5756279087111393
1.5766960668477126
1.579208926098487
1.5868724336559885
1.605307311009515
1.6110369538769507
1.6034703769602598
1.6597934486960044
1.463218250058767
1.488028447622265
1.4780794777069588
1.4755772055064402
1.4752564226270903
1.476274042556044
1.4771532343188316
1.472908124106447
1.4654651865082462
1.4622207923845176
1.4683125525034049
1.4865834589950169
1.517676485153886
1.5279335549600899
1.530322332921808
1.5317555807165761
1.4808366675596913
1.5206673939166842
1.5332607630950497
1.5422234885397916
1.5522718331059442
1.5591248918964182
1.5625252294081724
1.5706161651833472
1.576280273648706
1.5788760369297714
1.5800011815420931
1.5810162848083575
1.580990610378798
1.5795938619034369
1.575730786494611
1.5771098624532744
1.5950388607702035
1.5872941019081603
1.5418919830289222
1.7357382603833418
1.4693087989325804
1.5158373324187442
1.526022952815765
1.5435042300982285
1.5595112915944085
1.5714485878875608
1.5668296850169672
1.5404385305752297
1.5035832844276493
1.4732955701297172
1.4578824556482988
1.4607454737391603
1.4819789543718689
1.513332950573543
1.5312778330375048
1.515219698892897
1.474832751452165
1.4738425979028733
1.5014722115654773
1.5273926136490814
1.5490964504979503
1.5677842334865553
1.5814354194838178
1.5863056741566997
1.5847984038700333
1.5842658283391853
1.5849246290429968
1.5863250018942143
1.5897147102006848
1.5964644260658625
1.6085772258477307
1.6308385857314036
1.624319931015509
1.610019837653631
1.5675946155231115
1.4979167492873833
1.8249978034534033
1.490022696472936
1.5428675322419647
1.5719334271661307
1.6202708721229921
1.674847851051025
1.6983782631791953
1.6512528746494246
1.5798191124411334
1.5107385794712578
1.4612206166028046
1.4345112569021312
1.4316382672304977
1.4485711782774267
1.4779717431219928
1.5045640394529716
1.5106985602252692
1.5077795213907663
1.5163669565900044
1.5404245804091041
1.5699779932451245
1.5968506734805537
1.6197779195886683
1.636405757740638
1.6461485011219206
1.6487763045694361
1.6493650390274097
1.6490694107509898
1.6476539103676564
1.6461119777352342
1.6454785582153142
1.646442307429646
1.6482516523674309
1.6348845178242828
1.6087922561102348
1.5497223971906393
1.543701162706042
1.6735671193057646
1.6599542993099936
1.4981736772871872
1.9150651266453982
1.5324093729074042
1.5958560717436479
1.6258871470103153
1.6945615551099273
1.7231832824417481
1.7103916316828025
1.6307983204436414
1.553159183904013
1.481816840568664
1.4291515636927716
1.4027153628799223
1.4034767926344631
1.426853240277454
1.4643505951800997
1.5049192840184713
1.535498164934727
1.5569833022182888
1.5807544201193628
1.6110682390474125
1.6301337786800678
1.6449316582145568
1.6568640137526303
1.6664089633047847
1.6740443125562146
1.679770462824263
1.6845420149691765
1.6874048406885276
1.688359098231185
1.6874048406885276
1.684064869629274
1.6788161261565673
1.670769113481926
1.6454850280571434
1.6111885112435955
1.549968766817816
1.5471384631128804
1.562978011553689
1.562210467651696
1.5744936319007186
2.0043145189189064
1.628035397073161
1.7474017047468429
1.7214985471286464
1.717541048860653
1.69102805686058
1.63744890591505
1.5644770705289102
1.4850046665101277
1.417200078602715
1.3737933525913935
1.3615918271975793
1.3801797440395238
1.4226333442298662
1.4799364862131088
1.5414457246848645
1.5833412174988961
1.606739747065064
1.62822423584289
1.6468409211845432
1.663068326671132
1.6759530639811844
1.6864505742858658
1.6940844564656656
1.6998094913978765
1.7036259998872814
1.7064882851892846
1.7074423618980894
1.7069653246957566
1.7041030531722143
1.6988553415196606
1.69169892961044
1.6835877220893611
1.6718162541502983
1.6315431611506013
1.5741105763513994
1.5518537577471667
1.5416183119394125
1.516007927995248
1.6004158490559746
2.1365846127862564
1.9467387028206533
1.9025868751253379
1.8031273000065664
1.7438401113912791
1.6614131507830299
1.5569168172700463
1.4503154428769032
1.3624659157909498
1.3089774083689105
1.2959534102574657
1.3220686908241452
1.378894299349713
1.4557858325233688
1.5458458040737
1.5881167820662399
1.620585752093723
1.6468409211845432
1.6673634118462253
1.683110572351494
1.6955157456544385
1.7050571528671876
1.7122126067088463
1.7169826186707908
1.7207984590905847
1.722706322522514
1.7231832824417481
1.722706322522514
1.7207984590905847
1.7174596069745125
1.7126896184199416
1.704580104166277
1.6969470145784693
1.686927708593593
1.6764302464326906
1.6654545062747201
1.6451438506895333
1.6337011347354724
1.573455848043621
1.4894703314990987
2.333764732030551
2.2022885945924155
2.0368271816194095
1.8554543646908244
1.6466137261148597
1.4311572884646167
1.2609375303317356
1.1574911882071095
1.1241649010024657
1.1526873904139217
1.2282594479974103
1.3356240521662182
1.4580859485701894
1.5413101984807729
1.5967123435354973
1.6406356979700585
1.6687950687059723
1.688359098231185
1.7026718864534103
1.714120639560053
1.7222293602255367
1.7240737140580076
1.7232467186293292
1.7213851557561124
1.7190036398204402
1.715585426928177
1.710244704481244
1.7041389880979931
1.6960647761606393
1.686448002174763
1.6753900717355987
1.6632548180541984
1.6515288879513623
1.6372512601718465
1.6216319029893889
1.6073709774564737
1.5983325417033698
1.593179994103958
1.5826548247386512
1.552289280970412
-2.974172430616434
-1.83652495538985
-1.1378464750168733
-0.38976159391588494
0.17117140447417267
0.6051738298174185
0.9570624318156602
1.2180855435795876
1.3811950821629482
1.5059549782535635
1.5799982162198813
1.630611159473685
1.6516578800589339
1.6682397492793772
1.6804817467470026
1.689444702240771
1.6948260540034399
1.6979780719263986
1.6988325750141637
1.6977180706017305
1.6956731446315754
1.6930410049194786
1.689164233693493
1.684375443531722
1.6791342262334845
1.673568429980229
1.6679399312567307
1.6630887769392306
1.6589206710826316
1.6563111088166147
1.6546568619722248
1.6531519586848082
1.6528394650290628
1.6549297323329184
1.6654800727698367
1.7003405362323623
1.771646272143933
1.6160763795106157
-2.466621906812419
-0.9985397162016381
0.04513658751828174
0.5772416179034934
0.901166731288116
1.1043786348324016
1.2579873386287288
1.3765538650212283
1.4684501410840582
1.5368624738327918
1.582996850613025
1.6153295321951964
1.6378786669131207
1.6544160705979531
1.6652522621413792
1.6726049612386227
1.677457980452805
1.68046472119943
1.6819301842437773
1.6828284188935847
1.6829528955966961
1.6822532493227327
1.6807183811314026
1.6793499080106418
1.677243101919262
1.675538547220895
1.6740087455816672
1.6731193249133642
1.6739551577244502
1.6769314407459648
1.684394088578204
1.6957973257071126
1.7078042928413408
1.7179964599792252
1.7294078867285236
1.7677365777758431
1.7030087521254937
1.6539056852337042
-0.8556835832403701
-0.9945735638418796
-0.8742454598230422
0.37504922698184806
0.8884187970787497
1.1045733917913465
1.2371186151410911
1.339738480747229
1.4226748741314126
1.4895192857575932
1.543832451170956
1.5856504204131405
1.6150155058099476
1.6354986701921603
1.6485553722743296
1.6564338518075459
1.660241761075811
1.661704951219646
1.6619686722484166
1.6615390562526073
1.6612170431005289
1.6610515543056434
1.661221216298232
1.6611851117910967
1.661923984560227
1.6624572465160103
1.6634064492612755
1.6650110276457482
1.6681626807484258
1.672357591777166
1.6792899984696423
1.6912106449206958
1.712458697234278
1.7504744269576333
1.7780172135642243
1.784213694244108
1.7510453498080796
1.7092959688205942
1.6678577329765956
1.6730121020788276
)
;

boundaryField
{
    ".*"
    {
        type            zeroGradient;
    }
}


// ************************************************************************* //
