// -*- C++ -*-
// File generated by PyFoam - sorry for the ugliness

FoamFile
{
 version 2.0;
 format ascii;
 class volVectorField;
 location "2700";
 object U;
}

dimensions [ 0 1 -1 0 0 0 0 ];

internalField nonuniform List<vector> 459
(
  (0.0332282 0.0882698 0)
  (-0.171758 0.0265119 0)
  (-0.197005 0.0178619 0)
  (-0.227726 0.0118603 0)
  (-0.249313 0.00529665 0)
  (-0.260791 -0.00156932 0)
  (-0.260697 -0.00874369 0)
  (-0.248402 -0.0161833 0)
  (-0.224863 -0.0231276 0)
  (-0.192167 -0.0284729 0)
  (-0.15379 -0.0313929 0)
  (-0.113531 -0.0315972 0)
  (-0.0749798 -0.0294158 0)
  (-0.0431847 -0.0262439 0)
  (-0.0332345 -0.0238529 0)
  (-0.00322184 0.00876303 0)
  (-0.0282627 -0.0195744 0)
  (-0.00264404 -0.02964 0)
  (0.0218678 -0.0221505 0)
  (0.0393074 -0.0149816 0)
  (0.0525941 -0.00961075 0)
  (0.0606169 -0.005712 0)
  (0.0646525 -0.00366803 0)
  (0.0664521 -0.00279691 0)
  (0.0673614 -0.00238264 0)
  (0.0679291 -0.00211202 0)
  (0.0682299 -0.00188875 0)
  (0.0681932 -0.00162063 0)
  (0.0676053 -0.0011324 0)
  (0.0658791 -2.11001e-05 0)
  (0.0617561 0.00226579 0)
  (0.0538785 0.00465717 0)
  (0.0466942 0.00662147 0)
  (-0.0142196 0.0229876 0)
  (0.20953 0.180349 0)
  (-0.158775 0.0697879 0)
  (-0.157491 0.0529994 0)
  (-0.188912 0.040344 0)
  (-0.21009 0.026146 0)
  (-0.221664 0.0104705 0)
  (-0.222117 -0.00676675 0)
  (-0.210819 -0.0246386 0)
  (-0.189301 -0.0406719 0)
  (-0.159975 -0.0524305 0)
  (-0.126335 -0.0583841 0)
  (-0.0918429 -0.0582775 0)
  (-0.0596345 -0.0527061 0)
  (-0.0330972 -0.0432187 0)
  (-0.0164711 -0.031707 0)
  (-0.00285592 -0.0137609 0)
  (-0.00353283 0.0170581 0)
  (0.0721935 0.0367559 0)
  (0.0312954 -0.0207268 0)
  (0.0391923 -0.0341609 0)
  (0.0513144 -0.0295625 0)
  (0.0608387 -0.0206816 0)
  (0.0673715 -0.0123925 0)
  (0.0700784 -0.00515751 0)
  (0.0705089 -0.00112691 0)
  (0.0704056 0.000558578 0)
  (0.0704882 0.00130689 0)
  (0.0706708 0.00176361 0)
  (0.0707987 0.00214711 0)
  (0.0708273 0.00263635 0)
  (0.0707029 0.00358984 0)
  (0.0698564 0.00597606 0)
  (0.0657023 0.0126075 0)
  (0.0552682 0.0181112 0)
  (0.0505842 0.0217743 0)
  (-0.0553846 0.0495364 0)
  (0.370673 0.269347 0)
  (-0.173742 0.110531 0)
  (-0.117741 0.0852454 0)
  (-0.147616 0.0629212 0)
  (-0.166083 0.0396646 0)
  (-0.176299 0.014342 0)
  (-0.175716 -0.0134396 0)
  (-0.163582 -0.0416972 0)
  (-0.142598 -0.0660736 0)
  (-0.115785 -0.0829173 0)
  (-0.0866542 -0.09042 0)
  (-0.0578936 -0.0889178 0)
  (-0.0315305 -0.0795115 0)
  (-0.00963933 -0.0640941 0)
  (0.00678853 -0.0431245 0)
  (0.0180153 -0.0175853 0)
  (0.0237057 0.0193762 0)
  (0.120669 -0.0369022 0)
  (0.0796462 -0.0447109 0)
  (0.0739114 -0.0427691 0)
  (0.0759725 -0.0353121 0)
  (0.0775884 -0.0257636 0)
  (0.0787102 -0.0174857 0)
  (0.0771062 -0.0139084 0)
  (0.072473 -0.0097283 0)
  (0.0692214 -0.00745058 0)
  (0.0677807 -0.0061439 0)
  (0.0671805 -0.0053014 0)
  (0.0668984 -0.00470939 0)
  (0.06695 -0.0041601 0)
  (0.0678295 -0.00326638 0)
  (0.070813 5.59373e-05 0)
  (0.0684576 0.0181659 0)
  (0.0537757 0.0307258 0)
  (0.0571614 0.0389385 0)
  (-0.0921833 0.0766903 0)
  (0.515466 0.340682 0)
  (-0.2066 0.146476 0)
  (-0.0765319 0.112318 0)
  (-0.103789 0.0816586 0)
  (-0.116488 0.0515189 0)
  (-0.122392 0.0179333 0)
  (-0.117041 -0.0203155 0)
  (-0.10181 -0.0588778 0)
  (-0.0810407 -0.090239 0)
  (-0.0578875 -0.110372 0)
  (-0.0352919 -0.117995 0)
  (-0.01442 -0.114684 0)
  (0.0044127 -0.101714 0)
  (0.0200261 -0.0820828 0)
  (0.0336466 -0.0579049 0)
  (0.0485943 -0.0305809 0)
  (0.0712569 -0.000368806 0)
  (0.103876 0.0134889 0)
  (0.109817 -0.0289899 0)
  (0.0942612 -0.0388729 0)
  (0.0848551 -0.0364775 0)
  (0.0801933 -0.0308975 0)
  (0.0770208 -0.0234847 0)
  (0.075373 -0.0144266 0)
  (0.0774126 -0.00858164 0)
  (0.0825635 -0.00656482 0)
  (0.0868012 -0.00539143 0)
  (0.0895594 -0.00447124 0)
  (0.0910847 -0.00336393 0)
  (0.0907278 -0.00179328 0)
  (0.0874479 0.000437931 0)
  (0.0799984 0.00363204 0)
  (0.0653738 0.00840145 0)
  (0.0529948 0.0297946 0)
  (0.0402755 0.0472528 0)
  (0.0606928 0.0603855 0)
  (-0.135168 0.0999308 0)
  (0.639627 0.395791 0)
  (-0.247076 0.175699 0)
  (-0.0367729 0.127299 0)
  (-0.0579964 0.0917253 0)
  (-0.0621182 0.057439 0)
  (-0.0596201 0.0172219 0)
  (-0.0426352 -0.0312254 0)
  (-0.0232665 -0.0772394 0)
  (-0.00457106 -0.111366 0)
  (0.0119202 -0.131015 0)
  (0.0245734 -0.135922 0)
  (0.0345337 -0.129724 0)
  (0.0422218 -0.114807 0)
  (0.0485318 -0.0938695 0)
  (0.0546952 -0.0695833 0)
  (0.0626277 -0.0451251 0)
  (0.0750374 -0.0265104 0)
  (0.0859294 -0.0254781 0)
  (0.0869818 -0.0341785 0)
  (0.0798821 -0.0345645 0)
  (0.0711756 -0.0305889 0)
  (0.0644174 -0.0255779 0)
  (0.0596158 -0.0199244 0)
  (0.0570692 -0.0136742 0)
  (0.0573618 -0.00773778 0)
  (0.0600814 -0.0048865 0)
  (0.0630499 -0.00372232 0)
  (0.0657991 -0.00264968 0)
  (0.0681729 -0.000627699 0)
  (0.0696897 0.00282116 0)
  (0.0691244 0.00772163 0)
  (0.065959 0.0142227 0)
  (0.0595063 0.023068 0)
  (0.0518238 0.0394883 0)
  (0.0402262 0.0590874 0)
  (0.0683089 0.080447 0)
  (-0.0349982 0.112445 0)
  (0.0474205 0.0268983 0)
  (-0.0691393 -0.037862 0)
  (-0.286089 -0.0614313 0)
  (0.728991 0.441472 0)
  (-0.28629 0.194894 0)
  (-0.00690543 0.121531 0)
  (-0.00961511 0.0895864 0)
  (-0.000681962 0.0539207 0)
  (0.0199836 0.0046039 0)
  (0.0496058 -0.0510587 0)
  (0.069295 -0.0951244 0)
  (0.081519 -0.124572 0)
  (0.0870058 -0.139465 0)
  (0.087159 -0.141219 0)
  (0.0837601 -0.132443 0)
  (0.0783237 -0.115959 0)
  (0.0724455 -0.0947041 0)
  (0.0675732 -0.0714374 0)
  (0.0649766 -0.0492096 0)
  (0.0653755 -0.0321129 0)
  (0.0656242 -0.0251738 0)
  (0.0617644 -0.0251016 0)
  (0.0540001 -0.0248589 0)
  (0.0454336 -0.0225964 0)
  (0.0384893 -0.0194106 0)
  (0.0336886 -0.0158427 0)
  (0.0312962 -0.0120553 0)
  (0.0314057 -0.00883697 0)
  (0.033525 -0.00759624 0)
  (0.0365527 -0.00728411 0)
  (0.0400343 -0.00654752 0)
  (0.0437311 -0.00431975 0)
  (0.0474564 0.000243682 0)
  (0.0502737 0.00711779 0)
  (0.051457 0.0159156 0)
  (0.0513513 0.0269841 0)
  (0.0515134 0.0422526 0)
  (0.049144 0.061339 0)
  (0.0764732 0.0860765 0)
  (0.0487372 0.105205 0)
  (0.0974909 0.0697464 0)
  (0.12224 0.0453301 0)
  (-0.138511 -0.0100676 0)
  (0.785908 0.483239 0)
  (-0.304124 0.179294 0)
  (0.0241348 0.0652559 0)
  (0.0579253 0.0549237 0)
  (0.0842398 0.0287511 0)
  (0.1285 -0.0255963 0)
  (0.157064 -0.0739209 0)
  (0.170728 -0.108159 0)
  (0.171557 -0.128264 0)
  (0.162267 -0.135643 0)
  (0.146044 -0.132169 0)
  (0.126001 -0.120302 0)
  (0.104837 -0.102829 0)
  (0.0847968 -0.082416 0)
  (0.0674665 -0.0612705 0)
  (0.0538232 -0.0418393 0)
  (0.0440814 -0.0270708 0)
  (0.0365893 -0.0193667 0)
  (0.0290433 -0.0171251 0)
  (0.0209226 -0.0164852 0)
  (0.0133665 -0.0153914 0)
  (0.00746157 -0.0139462 0)
  (0.0035343 -0.0124316 0)
  (0.00172324 -0.0109827 0)
  (0.00198471 -0.0100758 0)
  (0.00382015 -0.0102309 0)
  (0.00653036 -0.0107357 0)
  (0.00984494 -0.0106194 0)
  (0.0137922 -0.00893655 0)
  (0.0185011 -0.00460943 0)
  (0.0252221 0.00323499 0)
  (0.0308887 0.0128972 0)
  (0.0364347 0.0240418 0)
  (0.0437736 0.0375619 0)
  (0.0511458 0.0531288 0)
  (0.0763084 0.0732565 0)
  (0.0886029 0.0805527 0)
  (0.12539 0.0523031 0)
  (0.167963 0.0428221 0)
  (-0.032058 0.0966979 0)
  (0.893908 0.482616 0)
  (-0.0560191 0.157649 0)
  (0.1197 -0.0236627 0)
  (0.208372 -0.0599207 0)
  (0.254536 -0.0735709 0)
  (0.279297 -0.0902639 0)
  (0.287832 -0.105622 0)
  (0.279654 -0.115271 0)
  (0.256995 -0.11809 0)
  (0.224145 -0.114309 0)
  (0.185836 -0.104792 0)
  (0.146181 -0.0907952 0)
  (0.108476 -0.0741809 0)
  (0.0750307 -0.0567479 0)
  (0.0470474 -0.0397083 0)
  (0.0253076 -0.0248324 0)
  (0.00987142 -0.0144551 0)
  (-0.000818066 -0.00954629 0)
  (-0.0087838 -0.00862607 0)
  (-0.0154896 -0.0089819 0)
  (-0.0210926 -0.0093137 0)
  (-0.0253786 -0.00953751 0)
  (-0.0283118 -0.00978293 0)
  (-0.0299084 -0.0101719 0)
  (-0.0303098 -0.0109 0)
  (-0.029908 -0.0120389 0)
  (-0.0291061 -0.0132142 0)
  (-0.0280071 -0.0139231 0)
  (-0.0264238 -0.0136436 0)
  (-0.0239006 -0.011763 0)
  (-0.0192739 -0.00749776 0)
  (-0.00874424 -0.000200289 0)
  (-0.000419995 0.00855274 0)
  (0.0108276 0.0171515 0)
  (0.0224254 0.0248311 0)
  (0.0437211 0.0335824 0)
  (0.0622914 0.0257742 0)
  (0.0811862 -0.00561942 0)
  (0.142774 0.044904 0)
  (-0.45553 0.22212 0)
  (1.04625 0.426962 0)
  (0.49562 0.27874 0)
  (0.514791 0.172828 0)
  (0.549861 0.0944769 0)
  (0.529693 0.0404095 0)
  (0.481764 -0.00233476 0)
  (0.426375 -0.0334907 0)
  (0.365852 -0.0523535 0)
  (0.301047 -0.0602708 0)
  (0.235369 -0.0597939 0)
  (0.172932 -0.0536398 0)
  (0.116636 -0.0438043 0)
  (0.0687529 -0.0324867 0)
  (0.0297407 -0.0213738 0)
  (-0.00116403 -0.0113121 0)
  (-0.0220342 -0.00462822 0)
  (-0.0339399 -0.00185217 0)
  (-0.0412254 -0.00148393 0)
  (-0.0464422 -0.00243621 0)
  (-0.0509336 -0.00379391 0)
  (-0.054883 -0.00513074 0)
  (-0.0582783 -0.00641443 0)
  (-0.0611547 -0.00768092 0)
  (-0.063619 -0.0089642 0)
  (-0.0658821 -0.0102853 0)
  (-0.0682816 -0.0115625 0)
  (-0.0711675 -0.0125063 0)
  (-0.0748314 -0.0126991 0)
  (-0.0795929 -0.0116157 0)
  (-0.0859418 -0.00858696 0)
  (-0.0945818 -0.00281195 0)
  (-0.105137 0.00622753 0)
  (-0.1161 0.018149 0)
  (-0.133434 0.0332779 0)
  (-0.160822 0.0514099 0)
  (-0.200677 0.070459 0)
  (-0.256945 0.0850861 0)
  (-0.320304 0.0923089 0)
  (-0.391848 0.0928747 0)
  (-0.660422 0.087325 0)
  (-0.179974 -0.0206244 0)
  (0.100164 -0.0358917 0)
  (0.176984 -0.0552982 0)
  (0.163939 -0.0477296 0)
  (0.14459 -0.034542 0)
  (0.120396 -0.0225589 0)
  (0.0883296 -0.0123304 0)
  (0.0524506 -0.00437892 0)
  (0.0176016 0.00104982 0)
  (-0.0152499 0.00459297 0)
  (-0.0386923 0.0057378 0)
  (-0.0557844 0.0056772 0)
  (-0.0666824 0.00456604 0)
  (-0.0723887 0.00237031 0)
  (-0.0756401 -0.000201857 0)
  (-0.0779443 -0.00283844 0)
  (-0.0801119 -0.00549358 0)
  (-0.0825637 -0.00792986 0)
  (-0.0854257 -0.00986549 0)
  (-0.088477 -0.0113276 0)
  (-0.0916521 -0.0123964 0)
  (-0.0950679 -0.0131189 0)
  (-0.09889 -0.0135156 0)
  (-0.103285 -0.0135052 0)
  (-0.108342 -0.0128434 0)
  (-0.113999 -0.0111329 0)
  (-0.120001 -0.00786526 0)
  (-0.125869 -0.00248656 0)
  (-0.130873 0.0053518 0)
  (-0.134641 0.016004 0)
  (-0.137637 0.0304806 0)
  (-0.140447 0.0492391 0)
  (-0.144201 0.0712178 0)
  (-0.149534 0.0917755 0)
  (-0.152919 0.0994538 0)
  (-0.135093 0.0722677 0)
  (-0.0818413 -0.0315709 0)
  (-0.289233 -0.225643 0)
  (0.0357574 0.198074 0)
  (0.0131506 0.063765 0)
  (-0.0325102 0.011868 0)
  (-0.0561784 0.0110759 0)
  (-0.0744842 0.0171794 0)
  (-0.0879546 0.0217971 0)
  (-0.0969471 0.0255895 0)
  (-0.103711 0.0287386 0)
  (-0.108542 0.0306647 0)
  (-0.111724 0.0311167 0)
  (-0.113035 0.0306079 0)
  (-0.113022 0.0303709 0)
  (-0.111914 0.0305674 0)
  (-0.110304 0.0312503 0)
  (-0.108809 0.0326118 0)
  (-0.107693 0.0344803 0)
  (-0.107097 0.0363693 0)
  (-0.107064 0.0377062 0)
  (-0.10751 0.0379016 0)
  (-0.108444 0.0369404 0)
  (-0.109827 0.0355003 0)
  (-0.111638 0.0337507 0)
  (-0.113845 0.0317919 0)
  (-0.116393 0.0297212 0)
  (-0.119177 0.0276498 0)
  (-0.122011 0.0256896 0)
  (-0.1246 0.0239274 0)
  (-0.126388 0.0225984 0)
  (-0.126459 0.0231439 0)
  (-0.123488 0.0268705 0)
  (-0.115858 0.0349512 0)
  (-0.10241 0.0484916 0)
  (-0.0835116 0.0672769 0)
  (-0.0604467 0.0863128 0)
  (-0.0362814 0.0971829 0)
  (0.00719167 0.0796478 0)
  (0.14458 0.00343139 0)
  (-0.207809 -0.138438 0)
  (-0.0929421 -0.347217 0)
  (-0.447391 -0.138574 0)
  (-0.334107 0.0445254 0)
  (-0.292216 -0.0442925 0)
  (-0.251366 -0.0509492 0)
  (-0.240075 -0.0436788 0)
  (-0.232072 -0.0367549 0)
  (-0.222763 -0.0324337 0)
  (-0.211116 -0.0303376 0)
  (-0.197428 -0.030594 0)
  (-0.182698 -0.0337509 0)
  (-0.168355 -0.0398008 0)
  (-0.155634 -0.0479465 0)
  (-0.145149 -0.0568819 0)
  (-0.136971 -0.0660566 0)
  (-0.130926 -0.0751902 0)
  (-0.126608 -0.0838701 0)
  (-0.123555 -0.0916597 0)
  (-0.121429 -0.0980926 0)
  (-0.120051 -0.10269 0)
  (-0.119392 -0.105112 0)
  (-0.119464 -0.105362 0)
  (-0.120204 -0.104174 0)
  (-0.121437 -0.101775 0)
  (-0.122997 -0.098334 0)
  (-0.124695 -0.0939362 0)
  (-0.126275 -0.0885632 0)
  (-0.127382 -0.082086 0)
  (-0.127558 -0.0742164 0)
  (-0.126195 -0.0647435 0)
  (-0.122163 -0.0542955 0)
  (-0.113296 -0.0427042 0)
  (-0.0966354 -0.0294456 0)
  (-0.0700681 -0.0135314 0)
  (-0.0350561 0.00578441 0)
  (0.0243513 0.0306423 0)
  (0.0748672 0.0313546 0)
  (0.123477 0.00955648 0)
  (0.176857 -0.031362 0)
  (-0.177911 -0.0996571 0)
)
;

boundaryField
{
  floor
  {
    type noSlip;
  }
  ceiling
  {
    type noSlip;
  }
  sWall
  {
    type noSlip;
  }
  nWall
  {
    type noSlip;
  }
  sideWalls
  {
    type empty;
  }
  glass1
  {
    type noSlip;
  }
  glass2
  {
    type noSlip;
  }
  sun
  {
    type noSlip;
  }
  heatsource1
  {
    type noSlip;
  }
  heatsource2
  {
    type noSlip;
  }
  Table_master
  {
    type noSlip;
  }
  Table_slave
  {
    type noSlip;
  }
  inlet
  {
    type fixedValue;
    value uniform (0.277164 -0.114805 0);
  }
  outlet
  {
    type zeroGradient;
  }
} 	// ************************************************************************* //

