/*--------------------------------*- C++ -*----------------------------------*=========                 |
  \      /  F ield         | OpenFOAM: The Open Source CFD Toolbox
   \    /   O peration     | Website:  https://openfoam.org
    \  /    A nd           | Version:  6
     \/     M anipulation  |
\*---------------------------------------------------------------------------*/
FoamFile
{
    version     2.0;
    format      ascii;
    class       volScalarField;
    location    "1900";
    object      PPD;
}
// * * * * * * * * * * * * * * * * * * * * * * * * * * * * * * * * * * * * * //

dimensions      [0 0 0 0 0 0 0];

internalField   nonuniform List<scalar> 
459
(
59.046490075803
47.29453636467223
45.89187110374775
44.667442231448526
43.84750281649822
43.37918981960353
43.2396024931952
43.448420772248014
43.970172828311945
44.8947170984671
46.25147569863371
48.21253773135159
50.790917160724184
52.70650674026543
52.94063131777915
56.426177089808675
55.750479794870465
55.49045398847008
55.59447241388559
55.72448033352143
55.88046589640311
55.807507761177014
55.56054004052258
55.524785381321514
55.57124769020728
55.64885642423849
55.75037423096635
55.88190218503039
56.037853909822545
56.32350731602918
56.83431215527297
57.30871812915608
57.49023346724742
58.137893231351086
56.96371470771963
48.422091469468455
47.98831460879336
46.8644962452355
46.18098314119408
45.81286357840105
45.691423111691066
45.830458610534244
46.08089542024714
46.536518564343204
47.363303565712
48.64814610396811
50.54776563701933
52.264390580443994
52.316394905067284
52.29039240357197
52.21238901094128
54.46253546743774
55.256377014067226
55.048272419470486
55.178341458817236
54.8602999054966
54.614090874421606
54.52948225477911
54.55774252544226
54.59333677804837
54.63618621701632
54.66985157953777
54.68267077443393
54.72948286468281
54.78780340493926
54.924828833073086
55.343172630041
56.296282638832885
56.582016872864436
56.15478877167283
59.251925809917374
48.57262228943548
49.904062840413985
49.38632228487882
49.247474854451625
49.2280003841332
49.309615966991146
49.35754929777499
49.12886078315176
48.75528590726889
48.58307704554489
48.9179131038301
49.91689443598568
51.64757551694812
52.1863892853848
52.29039240357197
52.34239807451696
49.588917198230554
51.81354504877061
52.48278290088117
52.998165807679875
53.52007994688535
53.89180704946781
54.07306019866481
54.48910551553725
54.79832892811718
54.93883158036333
54.99861618268846
55.027466174411956
55.025270270954834
54.948168372672804
54.71098865466335
54.81222718294437
55.771133669030725
55.33302525889415
52.81144941910102
63.315421767674565
48.86463320872206
51.41548196202147
51.99134303272682
52.93941785041999
53.8083774560315
54.4834855948902
54.231847915803996
52.794183142908715
50.843434441312134
49.204470331896125
48.3517391337169
48.56831813170965
49.706804000820874
51.450384045253244
52.36840190149506
51.528608675624305
49.32913537210124
49.28442568492391
50.79234070895855
52.23167363260471
53.387787533650325
54.40657230036846
55.152421829573505
55.41824748461816
55.329264045009225
55.29291509329061
55.32206110736797
55.41823742280598
55.59691488841389
55.934831751918644
56.59361764567425
57.807812021215675
57.43268495636226
56.611132118843415
54.254805126520566
50.40173744146379
67.99979936886547
49.97818850189924
52.91337587942788
54.49555596028535
57.12399582087171
60.072254977974815
61.38214638773216
58.86472261029528
54.981452627300335
51.24134594546232
48.55959291385375
47.15279009009404
47.00711939565783
47.956277357436576
49.53344736141102
50.98777702371516
51.349793886336826
51.166075451362765
51.63458022298599
52.94806335067844
54.561090972424914
56.02525918940164
57.27276769420415
58.177005019713974
58.65525066478684
58.84122243239715
58.866335173095536
58.843306544897246
58.759856339248756
58.669027668967445
58.62876839801575
58.701896303475124
58.771717483482576
58.02059057213555
56.557251344030036
53.3264323709112
52.94706482704857
59.9965152234951
59.31577143332709
50.45429878131876
72.46470791132673
52.305066188595596
55.77380778734547
57.409136438508504
61.12617986462098
62.68251559129825
62.06728717824711
57.7754833028021
53.565179216203695
49.70905672273686
46.86928182404654
45.45963964055978
45.50746378815039
46.794669584886634
48.85395721297924
51.04148405973203
52.71451110852423
53.888706520108826
55.18520882330125
56.83572406344916
57.77532607985022
58.57769459456663
59.223440450009804
59.73906064259798
60.15086791925549
60.484976844137215
60.716014886535575
60.89555356389193
60.946824415044915
60.89555356389193
60.716014886535575
60.433604823973944
59.98765702197015
58.5894427783347
56.72917562371514
53.33571999741769
53.173020139435295
54.01218585415908
53.964411754646896
54.652397514293966
76.68185990406441
57.480004350639554
63.92497789463314
62.57051021566205
62.3663356462421
61.00336427091152
58.12734237376271
54.17856296544084
49.909332266341984
46.25632409984777
43.95091497554895
43.33942039044271
44.32851024130181
46.5756597110761
49.70634143428268
53.093023395320785
55.256377014067226
56.55604620812742
57.69759187141856
58.706944989260116
59.558698600167446
60.27942428433425
60.818625583308894
61.22860303044689
61.535577984913054
61.765510689071476
61.91865260536255
61.96967336422484
61.944164656628274
61.79104257420896
61.51001391293799
61.12617986462098
60.664692567555896
60.017636059148195
57.834529410296454
54.67957708202877
53.443037975886625
52.84270107795525
51.46570474485142
56.056846932502744
82.28881509672024
74.0027155640197
71.89130929256382
66.84301968522252
63.7915124211093
59.43059758533876
53.807313877335396
48.05065411880746
43.396537374583346
40.611123962713556
39.946224677502556
41.30115642820003
44.2652371186727
48.39396421888781
53.330091976323025
55.54246449427186
57.30871812915608
58.706944989260116
59.79057116004596
60.63902720358479
61.305388532145294
61.816571180868976
62.19909947599321
62.47912863052535
62.65710491075644
62.75872564133227
62.80951390687004
62.78412162475881
62.68251559129825
62.504564614398724
62.22457414980222
61.816571180868976
61.38214638773216
60.844271122815286
60.25371823908715
59.661776845030175
58.60991476912902
57.98803451603999
54.65448697506964
50.0107318457462
89.09209725520245
84.76280527221202
78.11803873220049
69.58463596067878
58.720747501470164
47.08850324196826
38.24932259618785
33.146003850358056
31.580193520722688
32.89755196794785
36.54672407062696
42.003373517545555
48.5340968478272
53.018680726412285
56.0104323346306
58.3966639011786
59.893562967698884
60.92119044365896
61.71443712682693
62.300977349487766
62.733325967403154
62.85595145158325
62.81136821267494
62.73573709722842
62.582058913079116
62.39691392094549
62.13322059803764
61.777285462251385
61.33969141668321
60.84356312415762
60.2173644398823
59.551757984349166
58.91490375162531
58.13770439210792
57.25731792725623
56.50387648425546
55.978502377797696
55.69602872853243
55.12246768045934
53.46174185798063
98.97088970667853
68.30956221289316
31.998602422366957
8.137735055617355
5.60036247593591
12.627566060528878
24.248747385631646
36.02245415665847
44.36312542250905
51.06921946203948
55.07428715536016
57.82714101545954
59.00944940386994
59.87936165301206
60.536950364434915
61.01779284254126
61.306929403972376
61.477278064345214
61.525068253587726
61.46718145121987
61.35804873564492
61.215971898009265
61.00569962384335
60.745016456411385
60.45878876203847
60.153887431273944
59.84463362276441
59.55039428598687
59.34612387389361
59.174391618879746
59.081254955416355
59.0225709028792
58.97327744992164
59.081615300940655
59.64959726303537
61.53116631042649
65.35846845948856
56.950996930815194
92.56699560257157
25.884762630031744
5.043521963928683
11.939585912271284
22.067415269908793
30.574574298835444
37.95401736064345
44.08048450154773
48.998320386003414
52.71333816754621
55.25441209904822
56.988000911860944
58.23809007568135
59.131674533686414
59.71484391242002
60.13584898168298
60.36959537241863
60.530393415068865
60.608961770220255
60.656393612815016
60.66218317709734
60.62379825081777
60.5407324087715
60.46660312299397
60.35275028966045
60.260142214664526
60.14988996064089
60.12681739959184
60.143251742462255
60.302015531792314
60.702751971034644
61.313875341609524
61.95178332642529
62.49004642391418
63.094808853572104
65.12268933323702
61.68289324877662
59.043819713432086
20.582555439558917
26.005806005063434
21.252204289840606
7.845375449285868
21.483981687432802
30.48234098047223
36.84609852610017
42.085557721102816
46.44931528513042
50.11314219739127
53.071009191538
55.32613705549018
56.982037012780076
58.09484393471089
58.82731208876691
59.22153144409626
59.44701798372475
59.51692470009817
59.494119822845114
59.461455834478514
59.43610966985918
59.41935109156939
59.42272155962826
59.4170778195361
59.45543036665037
59.48473427872847
59.53817511648798
59.62862638410105
59.77695926275156
60.03704623217399
60.417693137431826
61.040441563704334
62.19054899091033
64.23190742523823
65.65234647147079
65.97565885202062
64.22328617518633
61.98531029114791
59.76228817502618
60.066025470171425
)
;

boundaryField
{
    ".*"
    {
        type            zeroGradient;
    }
}


// ************************************************************************* //
