/*--------------------------------*- C++ -*----------------------------------*\
  =========                 |
  \\      /  F ield         | OpenFOAM: The Open Source CFD Toolbox
   \\    /   O peration     | Website:  https://openfoam.org
    \\  /    A nd           | Version:  6
     \\/     M anipulation  |
\*---------------------------------------------------------------------------*/
FoamFile
{
    version     2.0;
    format      ascii;
    class       volScalarField;
    location    "190";
    object      alphat;
}
// * * * * * * * * * * * * * * * * * * * * * * * * * * * * * * * * * * * * * //

dimensions      [1 -1 -1 0 0 0 0];

internalField   nonuniform List<scalar> 
459
(
0.00159666
0.00179181
0.0019542
0.00183252
0.00154961
0.00132096
0.00109578
0.000971061
0.000878179
0.00080457
0.000754912
0.000721421
0.000696904
0.000678379
0.000662308
0.00041795
0.000442269
0.000420826
0.000324896
0.000268641
0.000248584
0.000250082
0.000259587
0.000260015
0.000245775
0.000228016
0.000219176
0.000246939
0.000294848
0.000353932
0.000445266
0.000494283
0.000479488
0.000425625
0.00162227
0.00310003
0.00448154
0.00613834
0.00649547
0.00604109
0.00499626
0.00364942
0.00306724
0.00317635
0.00325765
0.00304325
0.00270928
0.00226213
0.00161137
0.000717617
0.000530884
0.000506255
0.00117496
0.00131554
0.00130298
0.00104104
0.00078771
0.000662308
0.000679853
0.000656266
0.000520214
0.000368998
0.000278175
0.000335415
0.000503931
0.000846416
0.00146198
0.00154648
0.0015934
0.000559368
0.0024908
0.00314465
0.00347954
0.00394878
0.00479812
0.00552105
0.00584231
0.00564433
0.00437835
0.00384212
0.00416798
0.00401686
0.0035275
0.0029133
0.00218463
0.00144779
0.000800023
0.000864888
0.00236741
0.00219257
0.00200957
0.00169615
0.00123034
0.000501777
0.000406886
0.000350422
0.000307151
0.000269647
0.000269529
0.000426289
0.000558551
0.000693653
0.00166252
0.00159163
0.00127739
0.000696431
0.00381772
0.0043505
0.00425621
0.0041263
0.00432098
0.00488533
0.00554652
0.00599404
0.00554483
0.00466278
0.00495992
0.00509196
0.00461992
0.00391927
0.0030502
0.00213367
0.00141759
0.00109133
0.00259033
0.00274103
0.00262338
0.00226365
0.00182466
0.0012911
0.000834847
0.000843758
0.000855799
0.000867885
0.00087994
0.000893013
0.000909751
0.000933306
0.000973779
0.00235039
0.00316033
0.0033342
0.00114673
0.00413747
0.00521557
0.00489519
0.00446701
0.00436757
0.00473349
0.00542094
0.00611292
0.00611223
0.00556104
0.0058219
0.006362
0.00631157
0.00607337
0.00576378
0.00538045
0.00497938
0.00467006
0.00460464
0.00451905
0.00444728
0.00435754
0.00423248
0.00411452
0.00402858
0.00403042
0.00402834
0.0040165
0.00400151
0.00399901
0.00402882
0.00410127
0.00422256
0.00440171
0.00449665
0.00439776
0.00371946
0.00161182
0.00144271
0.00126124
0.00438376
0.0057357
0.00518411
0.0044953
0.00432417
0.00465647
0.0053904
0.00621494
0.00639514
0.00600262
0.00637577
0.00712395
0.00732244
0.007338
0.007319
0.00724297
0.00708505
0.0068557
0.00658636
0.00629392
0.00603214
0.00583679
0.00569719
0.00558971
0.00549023
0.00538701
0.00526769
0.00513054
0.00498641
0.00486076
0.004783
0.00476763
0.00480244
0.00484856
0.00488194
0.00483648
0.00448488
0.00372809
0.00285502
0.00135778
0.00464481
0.00562222
0.00441447
0.00429573
0.00429013
0.00468136
0.00544821
0.00628281
0.00649178
0.00618653
0.00655554
0.00737629
0.00769051
0.00781739
0.00791271
0.0079528
0.007901
0.00774645
0.00750852
0.00723097
0.00696931
0.00676228
0.0066112
0.00649254
0.00637564
0.00624075
0.00607489
0.00586734
0.00561861
0.00535122
0.00510147
0.00489851
0.0047464
0.00461013
0.00442913
0.0041254
0.0036271
0.00299055
0.00234546
0.00132399
0.00498792
0.00548721
0.00443877
0.00402127
0.00449672
0.00493614
0.00560747
0.00632308
0.00651251
0.00625977
0.00652099
0.00721873
0.00757801
0.00774903
0.00788358
0.00797049
0.00798031
0.00789671
0.0077297
0.00751603
0.00730701
0.00714507
0.00704489
0.00699455
0.00696656
0.00693255
0.00686731
0.00674711
0.00655485
0.00629712
0.00598359
0.00559555
0.00514132
0.00465247
0.00416585
0.00371504
0.00333605
0.00295738
0.00258816
0.00159909
0.00555055
0.00648909
0.00832638
0.00412887
0.00478633
0.00557813
0.00598571
0.00648316
0.00662016
0.00633006
0.0062895
0.00667034
0.00701508
0.00719271
0.00730736
0.00738273
0.00741016
0.00737496
0.00727506
0.00713003
0.00697738
0.00685839
0.00680395
0.00682916
0.00693234
0.00709244
0.00726996
0.00742658
0.00752596
0.00752276
0.0074035
0.00721838
0.00702762
0.00690207
0.00684713
0.00661752
0.00574515
0.00488772
0.00478473
0.00179566
0.0135846
0.00695123
0.00441141
0.00640764
0.00663959
0.00688058
0.00684567
0.00638865
0.00610847
0.00609907
0.0061706
0.00619702
0.0062013
0.00619915
0.00619038
0.00616425
0.00611059
0.00602966
0.00593559
0.00585277
0.00580982
0.00583568
0.00595671
0.00618964
0.00652543
0.00692311
0.00730747
0.00755748
0.00766671
0.00765388
0.00756025
0.00744319
0.00733657
0.00719199
0.00680376
0.00590896
0.00547922
0.00176192
0.0056417
0.00376971
0.00602287
0.00657585
0.00667873
0.00669738
0.00628803
0.00571721
0.00529037
0.00503044
0.00484906
0.0046808
0.00454373
0.00444084
0.004366
0.00430897
0.00425893
0.00420818
0.00415506
0.00410505
0.00407009
0.00406787
0.00412173
0.00425997
0.00450915
0.00488003
0.00534318
0.00579548
0.00616126
0.00639905
0.00650285
0.0064893
0.00637715
0.00614955
0.00558206
0.0047294
0.00443789
0.00154944
0.00267914
0.00325736
0.00397394
0.00191159
0.00187858
0.00205734
0.00208369
0.00201432
0.00188454
0.00175822
0.00164923
0.00155543
0.00147407
0.00140448
0.00134339
0.00128879
0.00123944
0.00119441
0.00115302
0.00111466
0.00107892
0.00104561
0.00101482
0.000987013
0.000963102
0.000944585
0.000933662
0.000933152
0.000946991
0.000986555
0.00105055
0.00112966
0.00120768
0.00126783
0.00129809
0.00129127
0.00126733
0.00123232
0.00123751
0.00117505
)
;

boundaryField
{
    floor
    {
        type            compressible::alphatWallFunction;
        Prt             0.85;
        value           nonuniform List<scalar> 
29
(
9.36133e-05
5.65259e-05
6.03285e-05
5.69911e-05
4.17118e-05
3.24718e-05
2.9111e-05
2.93586e-05
3.09487e-05
3.10279e-05
2.86501e-05
2.56516e-05
2.41421e-05
2.88238e-05
3.67876e-05
4.63456e-05
6.07387e-05
6.83055e-05
6.60326e-05
5.76815e-05
5.76808e-05
7.82096e-05
9.86298e-05
0.000162753
9.36122e-05
5.65251e-05
7.01974e-05
0.0001231
0.000155049
)
;
    }
    ceiling
    {
        type            compressible::alphatWallFunction;
        Prt             0.85;
        value           nonuniform List<scalar> 
43
(
0.000364333
0.000436574
0.000524301
0.000265745
0.000261426
0.000284759
0.000288176
0.000279155
0.000262193
0.000245559
0.000231104
0.00021858
0.000207647
0.000198244
0.000189944
0.000182492
0.000175724
0.000169524
0.000163799
0.000158474
0.000153494
0.000148834
0.000144513
0.000140597
0.00013722
0.000134598
0.000133049
0.000132977
0.000134942
0.000140536
0.000149526
0.000160554
0.000171344
0.000179611
0.000183754
0.000182824
0.000179547
0.000174742
0.000175453
0.00016684
0.000712164
0.000821352
0.000722801
)
;
    }
    sWall
    {
        type            compressible::alphatWallFunction;
        Prt             0.85;
        value           uniform 0.000363231;
    }
    nWall
    {
        type            compressible::alphatWallFunction;
        Prt             0.85;
        value           nonuniform List<scalar> 6(0.000178324 0.000191529 0.00018693 0.000245655 0.000217399 0.000166501);
    }
    sideWalls
    {
        type            empty;
    }
    glass1
    {
        type            compressible::alphatWallFunction;
        Prt             0.85;
        value           nonuniform List<scalar> 9(0.000219125 0.000222682 0.00033458 0.000498395 0.000536828 0.000566221 0.000597201 0.000637686 0.000703576);
    }
    glass2
    {
        type            compressible::alphatWallFunction;
        Prt             0.85;
        value           nonuniform List<scalar> 2(0.000222608 0.000248579);
    }
    sun
    {
        type            compressible::alphatWallFunction;
        Prt             0.85;
        value           nonuniform List<scalar> 
14
(
0.000223991
0.000249871
0.000271183
0.000255225
0.000217656
0.000186739
0.000155698
0.000138199
0.000124994
0.000114411
0.000107206
0.000102315
9.87167e-05
9.59875e-05
)
;
    }
    heatsource1
    {
        type            compressible::alphatWallFunction;
        Prt             0.85;
        value           nonuniform List<scalar> 3(0.00022611 0.000203404 0.000178703);
    }
    heatsource2
    {
        type            compressible::alphatWallFunction;
        Prt             0.85;
        value           nonuniform List<scalar> 4(0.000101896 7.40596e-05 7.40587e-05 0.000113885);
    }
    Table_master
    {
        type            compressible::alphatWallFunction;
        Prt             0.85;
        value           nonuniform List<scalar> 9(6.96125e-05 5.48953e-05 4.59338e-05 3.89403e-05 3.27724e-05 3.27169e-05 5.79075e-05 7.82377e-05 9.83713e-05);
    }
    Table_slave
    {
        type            compressible::alphatWallFunction;
        Prt             0.85;
        value           nonuniform List<scalar> 9(0.00011893 0.000120214 0.000121945 0.00012368 0.000125408 0.000127277 0.000129663 0.000133009 0.000138734);
    }
    inlet
    {
        type            fixedValue;
        value           uniform 1.94e-05;
    }
    outlet
    {
        type            zeroGradient;
    }
}


// ************************************************************************* //
