/*--------------------------------*- C++ -*----------------------------------*\
  =========                 |
  \\      /  F ield         | OpenFOAM: The Open Source CFD Toolbox
   \\    /   O peration     | Website:  https://openfoam.org
    \\  /    A nd           | Version:  6
     \\/     M anipulation  |
\*---------------------------------------------------------------------------*/
FoamFile
{
    version     2.0;
    format      ascii;
    class       volScalarField;
    location    "190";
    object      epsilon;
}
// * * * * * * * * * * * * * * * * * * * * * * * * * * * * * * * * * * * * * //

dimensions      [0 2 -3 0 0 0 0];

internalField   nonuniform List<scalar> 
459
(
0.000925393
0.00130548
0.00169244
0.00139079
0.000838339
0.000518429
0.000295651
0.000205689
0.000152087
0.000116927
9.65646e-05
8.4261e-05
7.59493e-05
7.00456e-05
6.51836e-05
1.63734e-05
1.94031e-05
1.67195e-05
7.6802e-06
4.33087e-06
3.42536e-06
3.48598e-06
3.89929e-06
3.92139e-06
3.31327e-06
2.64564e-06
2.34845e-06
3.35402e-06
5.72121e-06
9.89213e-06
1.97034e-05
2.69586e-05
2.46073e-05
1.72118e-05
0.000974619
0.0025608
0.0040135
0.00540893
0.00496007
0.00344986
0.00148852
0.000533559
0.000216925
0.000103471
7.02999e-05
6.40423e-05
6.57127e-05
6.7848e-05
6.80031e-05
8.29018e-05
3.35498e-05
2.91182e-05
6.06841e-05
4.2728e-05
2.43917e-05
1.53966e-05
1.15561e-05
9.42331e-06
7.88891e-06
7.22066e-06
5.31353e-06
3.36477e-06
3.00864e-06
7.39702e-06
1.46013e-05
2.92259e-05
4.49201e-05
5.55205e-05
7.01467e-05
3.90821e-05
0.00354253
0.00476258
0.00438101
0.00403278
0.00394812
0.00364033
0.00303014
0.00220887
0.000660619
0.000187198
8.8612e-05
7.19301e-05
7.49372e-05
8.26617e-05
9.06032e-05
0.000100105
0.00011487
0.000145156
0.000142229
6.6408e-05
5.57832e-05
5.67024e-05
5.58827e-05
2.82639e-05
1.50574e-05
9.61559e-06
6.47485e-06
4.38095e-06
4.35995e-06
1.72708e-05
3.89363e-05
7.46354e-05
7.20928e-05
8.12274e-05
9.18299e-05
7.55192e-05
0.0127914
0.0102911
0.00745773
0.00542275
0.00418739
0.00352222
0.00303942
0.00250402
0.0014871
0.000386222
0.000129976
8.75266e-05
8.55472e-05
9.35862e-05
0.000107498
0.00013324
0.000186993
0.000291642
0.000175413
8.47935e-05
6.87059e-05
6.93665e-05
7.63057e-05
9.25438e-05
0.000130789
0.000135038
0.000140918
0.000146988
0.000153214
0.000160155
0.00016933
0.000182802
0.000207553
0.000153898
0.000176652
0.000267543
0.000338212
0.0162609
0.0134868
0.00821719
0.00524434
0.00380497
0.00313223
0.00275665
0.00239636
0.00161833
0.000535277
0.00017809
0.000106221
9.67457e-05
9.9141e-05
0.000101998
0.000103049
0.000102979
9.93927e-05
7.9047e-05
6.72966e-05
6.42057e-05
6.63224e-05
7.15339e-05
7.90583e-05
8.84207e-05
9.76122e-05
0.000108454
0.000121485
0.000137475
0.000157863
0.000185073
0.000221705
0.000271029
0.000325008
0.000417311
0.000507671
0.000585862
0.000942379
0.000675572
0.000451233
0.0193189
0.0170756
0.0081778
0.00427957
0.00299575
0.00254541
0.00234197
0.00213685
0.00149613
0.000555551
0.000201004
0.000121946
0.000113812
0.000120094
0.00012587
0.000126566
0.000120763
0.000109748
9.65207e-05
8.62358e-05
8.09001e-05
8.08313e-05
8.47925e-05
9.17482e-05
0.000101114
0.000113105
0.000128676
0.000148737
0.000174872
0.000210106
0.000259402
0.00032948
0.000427708
0.000559504
0.000732302
0.00093477
0.00105825
0.000990299
0.000622451
0.000563539
0.0229521
0.0217646
0.00789357
0.00280336
0.00220704
0.00203268
0.00195589
0.00182973
0.00129655
0.000524359
0.000204199
0.000133482
0.000132405
0.00014632
0.000158776
0.000164447
0.000161361
0.000150509
0.000135457
0.000120862
0.000110452
0.00010581
0.000106615
0.000112126
0.000122075
0.00013723
0.000158801
0.000187989
0.000226493
0.000277495
0.000346341
0.000439995
0.000564265
0.000718239
0.000887098
0.00102932
0.00106939
0.000979467
0.000782893
0.000522605
0.0283859
0.0307617
0.0179715
0.00264411
0.00176717
0.00171223
0.00166281
0.0015479
0.00110456
0.000484065
0.000212593
0.000152926
0.000158843
0.000179584
0.000197717
0.000207862
0.000208003
0.000198539
0.00018251
0.000164538
0.000149044
0.000138743
0.000134512
0.000136481
0.000145205
0.000162457
0.00019067
0.000232548
0.00029069
0.000367128
0.000461377
0.000567309
0.000674408
0.000775878
0.00087318
0.000976929
0.00110733
0.00125511
0.00138222
0.000923347
0.039063
0.0622541
0.0758446
0.0112047
0.00195261
0.00165274
0.00150267
0.0013525
0.000970813
0.000478689
0.00026913
0.000211684
0.000212161
0.00022964
0.000245951
0.00025512
0.000255182
0.000246109
0.000229935
0.000210322
0.000191237
0.000175629
0.000165117
0.000160589
0.000163193
0.000175629
0.000200679
0.000242305
0.000304951
0.000390368
0.000501576
0.000640719
0.000808709
0.00101148
0.0012548
0.00149829
0.00162991
0.00193413
0.00300103
0.001308
0.182372
0.0526366
0.00417754
0.00191649
0.00151533
0.00130617
0.000926144
0.000572834
0.000403188
0.000336617
0.000316087
0.000313068
0.000313749
0.000311668
0.000304331
0.000291294
0.000273468
0.00025279
0.000231669
0.000212315
0.00019638
0.000185072
0.000179571
0.000181645
0.000193592
0.000218505
0.000260165
0.000322071
0.000406496
0.000508954
0.000619931
0.000727891
0.000818574
0.000869056
0.000849195
0.000787486
0.00135966
0.00123404
0.040827
0.00573244
0.00258183
0.00181342
0.00154043
0.00130922
0.000964633
0.000713361
0.000573917
0.000501264
0.000462714
0.000438322
0.000417901
0.000397183
0.000374719
0.000350416
0.000324849
0.000298964
0.000273875
0.000250662
0.000230231
0.000213326
0.000200675
0.000193237
0.00019238
0.000200092
0.000219269
0.000254267
0.000307316
0.000374591
0.000444708
0.000502171
0.000532266
0.000523762
0.000484792
0.000465807
0.00103008
0.000839401
0.00437722
0.00786138
0.014274
0.00159101
0.00151048
0.00198408
0.00206019
0.0018586
0.00152059
0.00123409
0.0010181
0.000853837
0.000726547
0.000628288
0.000549683
0.000485247
0.000431509
0.000386092
0.000347251
0.000313675
0.000284408
0.000258822
0.000236585
0.000217633
0.000202165
0.000190699
0.000184131
0.000183798
0.000192066
0.000217099
0.000262047
0.000325685
0.000397799
0.000460139
0.000493814
0.000486042
0.000459474
0.000422409
0.000427712
0.000366239
)
;

boundaryField
{
    floor
    {
        Cmu             0.09;
        kappa           0.41;
        E               9.8;
        type            epsilonWallFunction;
        value           nonuniform List<scalar> 
29
(
6.51836e-05
1.63734e-05
1.94031e-05
1.67195e-05
7.6802e-06
4.33087e-06
3.42536e-06
3.48598e-06
3.89929e-06
3.92139e-06
3.31327e-06
2.64564e-06
2.34845e-06
3.35402e-06
5.72121e-06
9.89213e-06
1.97034e-05
2.69586e-05
2.46073e-05
1.72118e-05
1.72118e-05
3.90821e-05
7.55192e-05
0.000338212
6.51836e-05
1.63734e-05
2.91182e-05
0.000145156
0.000291642
)
;
    }
    ceiling
    {
        Cmu             0.09;
        kappa           0.41;
        E               9.8;
        type            epsilonWallFunction;
        value           nonuniform List<scalar> 
43
(
0.00437722
0.00786138
0.014274
0.00159101
0.00151048
0.00198408
0.00206019
0.0018586
0.00152059
0.00123409
0.0010181
0.000853837
0.000726547
0.000628288
0.000549683
0.000485247
0.000431509
0.000386092
0.000347251
0.000313675
0.000284408
0.000258822
0.000236585
0.000217633
0.000202165
0.000190699
0.000184131
0.000183798
0.000192066
0.000217099
0.000262047
0.000325685
0.000397799
0.000460139
0.000493814
0.000486042
0.000459474
0.000422409
0.000427712
0.000366239
0.039063
0.0622541
0.040827
)
;
    }
    sWall
    {
        Cmu             0.09;
        kappa           0.41;
        E               9.8;
        type            epsilonWallFunction;
        value           uniform 0.00437722;
    }
    nWall
    {
        Cmu             0.09;
        kappa           0.41;
        E               9.8;
        type            epsilonWallFunction;
        value           nonuniform List<scalar> 6(0.000451233 0.000563539 0.000522605 0.00123404 0.000839401 0.000366239);
    }
    sideWalls
    {
        type            empty;
    }
    glass1
    {
        Cmu             0.09;
        kappa           0.41;
        E               9.8;
        type            epsilonWallFunction;
        value           nonuniform List<scalar> 9(0.000925393 0.000974619 0.00354253 0.0127914 0.0162609 0.0193189 0.0229521 0.0283859 0.039063);
    }
    glass2
    {
        Cmu             0.09;
        kappa           0.41;
        E               9.8;
        type            epsilonWallFunction;
        value           nonuniform List<scalar> 2(0.000923347 0.001308);
    }
    sun
    {
        Cmu             0.09;
        kappa           0.41;
        E               9.8;
        type            epsilonWallFunction;
        value           nonuniform List<scalar> 
14
(
0.000925393
0.00130548
0.00169244
0.00139079
0.000838339
0.000518429
0.000295651
0.000205689
0.000152087
0.000116927
9.65646e-05
8.4261e-05
7.59493e-05
7.00456e-05
)
;
    }
    heatsource1
    {
        Cmu             0.09;
        kappa           0.41;
        E               9.8;
        type            epsilonWallFunction;
        value           nonuniform List<scalar> 3(0.000942379 0.000675572 0.000451233);
    }
    heatsource2
    {
        Cmu             0.09;
        kappa           0.41;
        E               9.8;
        type            epsilonWallFunction;
        value           nonuniform List<scalar> 4(8.29018e-05 3.35498e-05 3.35498e-05 0.00011487);
    }
    Table_master
    {
        Cmu             0.09;
        kappa           0.41;
        E               9.8;
        type            epsilonWallFunction;
        value           nonuniform List<scalar> 9(2.82639e-05 1.50574e-05 9.61559e-06 6.47485e-06 4.38095e-06 4.35995e-06 1.72708e-05 3.89363e-05 7.46354e-05);
    }
    Table_slave
    {
        Cmu             0.09;
        kappa           0.41;
        E               9.8;
        type            epsilonWallFunction;
        value           nonuniform List<scalar> 9(0.000130789 0.000135038 0.000140918 0.000146988 0.000153214 0.000160155 0.00016933 0.000182802 0.000207553);
    }
    inlet
    {
        type            turbulentMixingLengthDissipationRateInlet;
        mixingLength    0.01;
        phi             phi;
        k               k;
        value           uniform 3.77336e-06;
    }
    outlet
    {
        type            zeroGradient;
    }
}


// ************************************************************************* //
