/*--------------------------------*- C++ -*----------------------------------*\
  =========                 |
  \\      /  F ield         | OpenFOAM: The Open Source CFD Toolbox
   \\    /   O peration     | Website:  https://openfoam.org
    \\  /    A nd           | Version:  6
     \\/     M anipulation  |
\*---------------------------------------------------------------------------*/
FoamFile
{
    version     2.0;
    format      ascii;
    class       volScalarField;
    location    "190";
    object      nut;
}
// * * * * * * * * * * * * * * * * * * * * * * * * * * * * * * * * * * * * * //

dimensions      [0 2 -1 0 0 0 0];

internalField   nonuniform List<scalar> 
459
(
0.00137772
0.00154518
0.00168477
0.00157795
0.00133295
0.00113565
0.00094176
0.00083447
0.000754589
0.000691292
0.000648597
0.000619805
0.00059873
0.00058281
0.000569008
0.000358802
0.000379636
0.000361176
0.000278755
0.000230411
0.000213162
0.00021443
0.000222576
0.000222941
0.000210731
0.000195506
0.00018793
0.000211746
0.000252847
0.000303538
0.000381908
0.000423961
0.000411255
0.000365057
0.00140163
0.00268121
0.00387567
0.00530532
0.00560791
0.00520812
0.00430013
0.00313828
0.00263658
0.00272978
0.00279936
0.00261501
0.00232795
0.00194365
0.00138444
0.000616503
0.000455979
0.000434655
0.00100878
0.00112945
0.00111858
0.000893532
0.000675941
0.00056816
0.000583068
0.000562784
0.000446104
0.00031643
0.000238549
0.000287663
0.000432255
0.000726146
0.00125446
0.00132681
0.00136683
0.000479795
0.00215552
0.00272136
0.00301101
0.00341669
0.00414953
0.00477019
0.00504142
0.00486398
0.00376617
0.00330289
0.00358234
0.00345223
0.00303153
0.00250356
0.00187724
0.00124397
0.000687321
0.000742788
0.00203305
0.00188292
0.00172584
0.00145679
0.00105672
0.000430684
0.000349145
0.000300651
0.000263496
0.000231297
0.000231173
0.000365693
0.00047928
0.000595324
0.0014271
0.00136588
0.00109611
0.000597549
0.00330641
0.00376526
0.00368315
0.00357055
0.00373825
0.00422416
0.00479127
0.0051712
0.00477534
0.00400989
0.00426389
0.00437706
0.00397116
0.00336874
0.00262155
0.00183364
0.00121811
0.000937672
0.0022254
0.00235496
0.00225411
0.00194524
0.00156812
0.00110964
0.000717539
0.000725204
0.000735561
0.000745956
0.000756325
0.000767568
0.000781958
0.000802201
0.000836956
0.00201975
0.00271519
0.00286414
0.000985064
0.00358177
0.00451021
0.00423279
0.00386337
0.00377786
0.00409337
0.0046844
0.00527603
0.0052664
0.00478387
0.00500599
0.00546994
0.00542652
0.00522164
0.00495528
0.00462544
0.00428036
0.0040142
0.00395779
0.00388423
0.00382274
0.00374581
0.00363841
0.00353707
0.00346323
0.00346484
0.00346308
0.00345296
0.00344014
0.00343807
0.00346378
0.00352616
0.00363051
0.00378455
0.00386619
0.00378118
0.00319799
0.00138597
0.00124048
0.00108441
0.00379353
0.00495651
0.00448016
0.00388649
0.00373974
0.00402668
0.00465827
0.00536444
0.00551042
0.00516473
0.00548339
0.00612636
0.00629713
0.00631057
0.00629417
0.00622857
0.00609248
0.00589498
0.00566318
0.00541166
0.00518659
0.00501866
0.00489864
0.00480622
0.00472066
0.00463191
0.00452934
0.0044115
0.00428771
0.00417985
0.00411321
0.00410024
0.00413047
0.00417044
0.00419948
0.00416069
0.00385846
0.00320739
0.00245564
0.00116759
0.00401782
0.00485682
0.00381464
0.00371398
0.00371006
0.00404778
0.00470764
0.00542225
0.00559345
0.00532383
0.00563913
0.00634478
0.00661526
0.00672466
0.00680674
0.00684114
0.00679636
0.00666315
0.00645824
0.00621934
0.00599416
0.005816
0.00568596
0.00558378
0.00548312
0.00536701
0.00522432
0.00504589
0.00483217
0.0046025
0.00438805
0.00421388
0.0040834
0.00396652
0.00381107
0.00354992
0.00312122
0.00257341
0.00201803
0.0011386
0.00431273
0.00473968
0.00383553
0.00347667
0.0038881
0.00426709
0.00484414
0.00545605
0.00561135
0.00538792
0.00561074
0.00621079
0.00652019
0.00666773
0.00678374
0.00685858
0.00686691
0.00679475
0.00665079
0.0064667
0.00628664
0.00614711
0.00606071
0.00601716
0.00599282
0.00596328
0.00590693
0.00580342
0.00563813
0.00541674
0.0051475
0.00481417
0.00442382
0.00400355
0.00358506
0.00319729
0.00287126
0.00254549
0.00222781
0.00137654
0.00479706
0.0056033
0.00718952
0.00356872
0.00413733
0.00482054
0.00516956
0.00559351
0.00570465
0.0054501
0.00541355
0.00574097
0.00603783
0.00619103
0.00628997
0.00635496
0.00637854
0.00634808
0.00626187
0.00613679
0.00600515
0.00590249
0.00585537
0.00587676
0.00596519
0.00610255
0.00625484
0.00638919
0.0064744
0.00647158
0.00636912
0.00621016
0.00604641
0.00593872
0.00589167
0.0056943
0.00494394
0.00420643
0.00411828
0.00154607
0.0117144
0.00600404
0.0038116
0.00553553
0.0057331
0.00593628
0.0059002
0.00550327
0.00526063
0.00525203
0.00531349
0.00533627
0.00534001
0.00533818
0.00533056
0.00530794
0.00526156
0.00519166
0.00511043
0.00503889
0.00500164
0.00502362
0.00512747
0.00532759
0.00561614
0.00595788
0.00628811
0.00650278
0.00659644
0.00658526
0.00650473
0.0064041
0.00631245
0.0061881
0.00585415
0.00508438
0.00471485
0.00151635
0.00486839
0.00325529
0.00520179
0.00567927
0.00576628
0.00577838
0.0054218
0.00492787
0.00455909
0.00433462
0.00417806
0.0040329
0.00391466
0.00382588
0.00376126
0.00371198
0.00366871
0.00362481
0.00357887
0.0035356
0.00350529
0.00350316
0.00354931
0.00366808
0.00388232
0.00420125
0.00459953
0.00498835
0.00530266
0.00550687
0.00559589
0.00558404
0.00548742
0.00529152
0.00480322
0.00406961
0.00381891
0.00133354
0.0023127
0.00281123
0.00342971
0.0016505
0.00162212
0.0017765
0.00179892
0.00173819
0.00162571
0.00151643
0.00142225
0.00134124
0.00127098
0.0012109
0.00115814
0.001111
0.00106837
0.00102949
0.000993744
0.000960619
0.000929755
0.000900984
0.000874394
0.00085038
0.000829723
0.000813715
0.000804248
0.000803749
0.000815602
0.000849596
0.000904606
0.000972616
0.00103968
0.00109137
0.00111735
0.00111143
0.00109078
0.00106061
0.00106505
0.0010114
)
;

boundaryField
{
    floor
    {
        type            nutkWallFunction;
        Cmu             0.09;
        kappa           0.41;
        E               9.8;
        value           nonuniform List<scalar> 
29
(
6.84605e-05
4.13349e-05
4.41084e-05
4.16662e-05
3.04995e-05
2.37445e-05
2.12866e-05
2.14662e-05
2.26271e-05
2.26848e-05
2.09484e-05
1.87585e-05
1.76561e-05
2.10765e-05
2.68933e-05
3.38725e-05
4.43807e-05
4.99034e-05
4.82433e-05
4.21492e-05
4.21491e-05
5.71317e-05
7.20488e-05
0.000118955
6.84605e-05
4.13348e-05
5.13248e-05
8.99768e-05
0.000113349
)
;
    }
    ceiling
    {
        type            nutkWallFunction;
        Cmu             0.09;
        kappa           0.41;
        E               9.8;
        value           nonuniform List<scalar> 
43
(
0.000267291
0.000320232
0.000384591
0.000194994
0.000191838
0.000208965
0.000211437
0.000204726
0.00019223
0.000180001
0.000169384
0.00016019
0.000152167
0.000145266
0.000139175
0.000133706
0.000128738
0.000124188
0.000119986
0.000116078
0.000112423
0.000109003
0.000105832
0.000102958
0.000100479
9.85535e-05
9.74131e-05
9.73541e-05
9.87855e-05
0.000102872
0.000109443
0.000117503
0.000125388
0.000131427
0.000134451
0.000133765
0.000131363
0.000127844
0.00012836
0.000122071
0.000523109
0.000602809
0.000530133
)
;
    }
    sWall
    {
        type            nutkWallFunction;
        Cmu             0.09;
        kappa           0.41;
        E               9.8;
        value           uniform 0.000267353;
    }
    nWall
    {
        type            nutkWallFunction;
        Cmu             0.09;
        kappa           0.41;
        E               9.8;
        value           nonuniform List<scalar> 6(0.000130608 0.000140283 0.000136928 0.000179993 0.000159322 0.000122078);
    }
    sideWalls
    {
        type            empty;
    }
    glass1
    {
        type            nutkWallFunction;
        Cmu             0.09;
        kappa           0.41;
        E               9.8;
        value           nonuniform List<scalar> 9(0.000164526 0.000167256 0.000250695 0.000372428 0.000400823 0.000422504 0.000445334 0.000475157 0.000523705);
    }
    glass2
    {
        type            nutkWallFunction;
        Cmu             0.09;
        kappa           0.41;
        E               9.8;
        value           nonuniform List<scalar> 2(0.000164271 0.000183395);
    }
    sun
    {
        type            nutkWallFunction;
        Cmu             0.09;
        kappa           0.41;
        E               9.8;
        value           nonuniform List<scalar> 
14
(
0.000164345
0.000183225
0.000198799
0.000186895
0.000159244
0.00013657
0.000113851
0.000101053
9.13982e-05
8.36613e-05
7.83945e-05
7.48191e-05
7.2189e-05
7.01946e-05
)
;
    }
    heatsource1
    {
        type            nutkWallFunction;
        Cmu             0.09;
        kappa           0.41;
        E               9.8;
        value           nonuniform List<scalar> 3(0.000165261 0.000148657 0.000130599);
    }
    heatsource2
    {
        type            nutkWallFunction;
        Cmu             0.09;
        kappa           0.41;
        E               9.8;
        value           nonuniform List<scalar> 4(7.44068e-05 5.4068e-05 5.4068e-05 8.31652e-05);
    }
    Table_master
    {
        type            nutkWallFunction;
        Cmu             0.09;
        kappa           0.41;
        E               9.8;
        value           nonuniform List<scalar> 9(5.07878e-05 4.00398e-05 3.34987e-05 2.83951e-05 2.38949e-05 2.38522e-05 4.22252e-05 5.70645e-05 7.17634e-05);
    }
    Table_slave
    {
        type            nutkWallFunction;
        Cmu             0.09;
        kappa           0.41;
        E               9.8;
        value           nonuniform List<scalar> 9(8.68847e-05 8.78236e-05 8.90894e-05 9.03577e-05 9.16206e-05 9.2987e-05 9.47308e-05 9.7175e-05 0.000101353);
    }
    inlet
    {
        type            calculated;
        value           uniform 3.3541e-05;
    }
    outlet
    {
        type            calculated;
        value           nonuniform List<scalar> 2(0.0023127 0.00281123);
    }
}


// ************************************************************************* //
