/*--------------------------------*- C++ -*----------------------------------*\
  =========                 |
  \\      /  F ield         | OpenFOAM: The Open Source CFD Toolbox
   \\    /   O peration     | Website:  https://openfoam.org
    \\  /    A nd           | Version:  6
     \\/     M anipulation  |
\*---------------------------------------------------------------------------*/
FoamFile
{
    version     2.0;
    format      ascii;
    class       surfaceScalarField;
    location    "190";
    object      phi;
}
// * * * * * * * * * * * * * * * * * * * * * * * * * * * * * * * * * * * * * //

dimensions      [1 0 -1 0 0 0 0];

internalField   nonuniform List<scalar> 
852
(
-0.00367079
0.00372199
-0.00353947
-0.000131063
-0.00269107
-0.000848196
-0.00240173
-0.000289207
-0.00278911
0.000387482
-0.00324023
0.000451207
-0.0032888
4.86601e-05
-0.00307324
-0.000215473
-0.00263817
-0.000434979
-0.00214419
-0.000493898
-0.00169094
-0.000453151
-0.00128975
-0.000401102
-0.000916585
-0.000373067
-0.000506208
-0.000410284
-0.000502814
-0.000821183
0.000826005
-0.000899374
7.81069e-05
-0.00080054
-9.89951e-05
-0.00079158
-9.1439e-06
-0.000835358
4.36864e-05
-0.00088652
5.11678e-05
-0.000915516
2.90404e-05
-0.000850812
-6.46467e-05
-0.000740644
-0.000110109
-0.000603076
-0.000137503
-0.000405799
-0.000197206
-0.000108503
-0.000297219
0.000221547
-0.000329956
0.000384955
-0.000163341
0.000531246
-0.000146212
0.000717236
-0.000185902
0.000906608
-0.00018928
0.000850136
5.6562e-05
0.000855481
-0.000101258
0.0039701
0.0015922
-0.00182434
0.00245813
-0.00171396
0.00213696
3.21359e-05
0.00114686
0.00137773
-0.000265981
0.0018642
-0.0016348
0.00141757
-0.00239009
0.00053989
-0.00231462
-0.00051036
-0.00206013
-0.000748297
-0.00178173
-0.000731464
-0.00148568
-0.000697051
-0.00114827
-0.000710379
-0.000781038
-0.000777425
-0.000438173
-0.000845586
0.000242359
-0.000680492
0.000242393
0.000723665
0.000115104
0.000564953
0.000236828
0.000221193
0.000244783
0.000117509
9.45566e-05
0.000199001
-3.77409e-05
0.000149213
0.000101017
-2.91407e-05
0.000207433
-0.000167878
7.4102e-05
-0.000231986
-4.59594e-05
-0.000238206
-0.000131224
-0.000207269
-0.000228076
-0.000137559
-0.000366855
-0.000109114
-0.000358289
-0.000131232
-0.000141138
-0.000150978
-0.000126372
-2.30242e-06
-0.00033447
0.000270472
-0.000461948
0.000335991
-8.86389e-06
0.00120476
0.00622033
-0.00204965
0.00820786
-0.00381174
0.00811142
-0.00161739
0.00705798
0.00108572
0.00550678
0.00292905
0.00368621
0.00368488
0.00164207
0.00346179
-0.000332149
0.00251416
-0.00153891
0.000696474
-0.0017705
-0.000516621
-0.00178158
-0.000720291
-0.00171701
-0.000761525
-0.00159971
-0.000827575
-0.00145051
-0.000926533
-0.00129317
-0.00100283
-0.00101386
-0.000959721
-0.000771382
-0.000367948
0.000497403
-0.000529169
0.000398083
-0.00050162
0.000217283
-0.000413505
6.51657e-06
-0.000259179
-0.000191957
0.000272818
-0.000430856
0.000480488
0.000554813
0.000509063
0.000378039
0.000150152
-0.000216487
-0.000574473
-0.000715335
-0.000841426
-0.000902564
-0.000273186
-0.00138755
2.31644e-05
-0.00146354
6.72247e-05
-0.000240287
0.00744581
-0.00926864
0.00923083
-0.00559668
0.0087148
-0.00110127
0.0076349
0.00216571
0.00622987
0.00433419
0.00454931
0.00536553
0.00273518
0.00527599
0.00100505
0.00424432
-0.000570778
0.00227233
-0.00135521
0.00026789
-0.00169725
-0.000378152
-0.00187803
-0.000580641
-0.00200285
-0.000702658
-0.00212189
-0.00080739
-0.00225464
-0.000869986
-0.00238033
-0.000833947
-0.00259259
-0.000559052
-0.00228339
-0.000295509
-0.00185018
6.424e-05
-0.00166742
0.000215374
-0.00155995
0.00010989
-0.00150835
-4.49951e-05
-0.00149432
-0.000205887
-0.00162782
-0.000297255
-0.00138037
-0.000247499
-0.00113456
-0.000245863
-0.000878773
-0.000255837
-0.000617725
-0.000261097
-0.000359519
-0.000258253
-0.00011306
-0.000246505
0.00011202
-0.000225121
0.000311774
-0.00019979
0.000486978
-0.000175233
0.000425395
-0.000211461
0.000553447
-0.000104727
0.000565238
5.55891e-05
0.000341065
0.00407295
-0.0130594
0.00511756
-0.00664119
0.00504034
-0.00102395
0.0046878
0.00251835
0.00404175
0.00498034
0.0030968
0.00631057
0.00197727
0.00639559
0.000843812
0.00537781
-0.000198255
0.0033144
-0.00101588
0.00108559
-0.00148836
9.44291e-05
-0.00176702
-0.000301879
-0.00196953
-0.000500048
-0.00214642
-0.000630388
-0.00231383
-0.000702483
-0.00246445
-0.000683225
-0.00249066
-0.000532753
-0.00245654
-0.000329554
-0.00225671
-0.000135513
-0.0020075
-3.3761e-05
-0.00183007
-6.74416e-05
-0.0017132
-0.000161767
-0.00164756
-0.000271429
-0.00159937
-0.00034533
-0.00147325
-0.000373516
-0.00132068
-0.00039832
-0.00115904
-0.000417356
-0.000996142
-0.000423881
-0.000839915
-0.000414358
-0.0006954
-0.000390889
-0.000559736
-0.000360647
-0.000419878
-0.000339499
-0.000242869
-0.000352082
-2.2549e-05
-0.000431609
0.000410614
-0.000537705
0.00110042
-0.000634034
0.00218792
-0.000746253
0.00278395
-0.000596032
0.00224911
0.000534888
0.00229368
0.00119581
-0.0139165
0.00170233
-0.0071476
0.00217394
-0.00149545
0.00181862
0.00287378
0.00152533
0.00527374
0.00116139
0.0066746
0.000706217
0.00685082
0.000212217
0.00587184
-0.000274673
0.00380129
-0.000805732
0.00161672
-0.00119696
0.00048576
-0.00145447
-4.42684e-05
-0.00163733
-0.000317076
-0.00179106
-0.000476551
-0.00193019
-0.00056324
-0.00204264
-0.000570676
-0.00207979
-0.000495503
-0.00203945
-0.000369798
-0.00192308
-0.000251783
-0.00177057
-0.000186174
-0.00164406
-0.000193853
-0.00155755
-0.000248176
-0.00150885
-0.000320026
-0.00147312
-0.000380945
-0.00142406
-0.000422462
-0.00136839
-0.000453873
-0.00131462
-0.000471002
-0.00127048
-0.0004679
-0.00124268
-0.000442022
-0.00123465
-0.000398773
-0.00124263
-0.000352516
-0.00125521
-0.000326756
-0.00125228
-0.000354842
-0.00120999
-0.00047372
-0.00104388
-0.000703636
-0.000599743
-0.00107801
0.00023957
-0.0015854
0.00135241
-0.0017087
0.00171025
0.000177276
0.00405505
-0.000514274
-0.0130082
-0.000165526
-0.00749624
-0.000132005
-0.00152886
-0.000874989
0.00361687
-0.000784286
0.00518314
-0.000547879
0.00643828
-0.000393868
0.00669687
-0.000335241
0.00581324
-0.000398596
0.00386467
-0.000619203
0.00183741
-0.000832444
0.000699104
-0.00100261
0.000126013
-0.00113274
-0.000186842
-0.00124199
-0.000367191
-0.00133893
-0.000466185
-0.00141421
-0.000495288
-0.00144674
-0.000462866
-0.00142469
-0.000391748
-0.001359
-0.000317369
-0.00127488
-0.000270197
-0.00120496
-0.00026367
-0.00116421
-0.000288816
-0.00115427
-0.000329861
-0.00116494
-0.000370168
-0.00118667
-0.000400615
-0.00122239
-0.00041804
-0.00127926
-0.000414007
-0.00136707
-0.000379961
-0.00149719
-0.000311767
-0.00167928
-0.000216535
-0.00191475
-0.000116892
-0.00219439
-4.69479e-05
-0.00250177
-4.72998e-05
-0.00281258
-0.000162759
-0.00308075
-0.00043531
-0.00324296
-0.000915652
-0.00318666
-0.00164155
-0.00258347
-0.00231174
-0.000798318
-0.0016077
0.00331802
-0.00287718
-0.009686
-0.0041691
-0.00620421
-0.00370103
-0.00199682
-0.00345712
0.00337306
-0.00263306
0.00435917
-0.00177819
0.00558349
-0.00108762
0.00600636
-0.000592338
0.005318
-0.000306899
0.00357927
-0.000257023
0.00178762
-0.000312223
0.000754412
-0.000386433
0.000200337
-0.000456341
-0.000116817
-0.00052095
-0.000302465
-0.000583142
-0.000403876
-0.000635651
-0.000442666
-0.000665628
-0.000432779
-0.000664875
-0.000392393
-0.000638532
-0.000343609
-0.000602482
-0.000306147
-0.000576065
-0.000289986
-0.000571467
-0.000293313
-0.000592711
-0.000308514
-0.000637144
-0.00032563
-0.000701692
-0.000335958
-0.000788982
-0.000330636
-0.00090603
-0.000296841
-0.00106408
-0.000221792
-0.00127918
-9.6531e-05
-0.00157464
7.90632e-05
-0.00198582
0.000294434
-0.00254576
0.000513148
-0.00325553
0.000662617
-0.00407611
0.000657958
-0.00493307
0.000421789
-0.00579358
-5.50099e-05
-0.00683345
-0.000601546
-0.00798407
-0.00116098
-0.00725922
-0.0023324
-0.00365944
-0.00920356
-0.0154103
-0.0100776
-0.00732939
-0.00596529
-0.000739179
-0.00388921
0.00228318
-0.00243932
0.00413368
-0.00130553
0.00487262
-0.000449194
0.00446171
0.000163535
0.0029666
0.000416692
0.00153456
0.000480154
0.000691062
0.000474705
0.000205906
0.000443477
-8.54678e-05
0.000400717
-0.000259583
0.000349555
-0.000352593
0.00029679
-0.000389782
0.000252801
-0.000388674
0.000224852
-0.000364332
0.000212387
-0.000331037
0.000207055
-0.000300712
0.00019735
-0.000280181
0.000174349
-0.000270214
0.000133604
-0.000267671
7.51445e-05
-0.000267072
1.29433e-06
-0.000262007
-8.43211e-05
-0.000244917
-0.000176233
-0.000204821
-0.000267852
-0.000130061
-0.000352739
-1.1527e-05
-0.000434999
0.000161445
-0.000521932
0.000381499
-0.000613378
0.000604734
-0.000706444
0.000755827
-0.000803446
0.0007551
-0.000949763
0.000568235
-0.00125538
0.000250728
-0.00173279
-0.000124027
-0.00228716
-0.000606496
-0.00231084
-0.00230861
-0.00566603
-0.00821242
0.00125895
-0.00601075
-0.00294075
-0.00399991
0.000272415
-0.00237545
0.0025093
-0.00100099
0.00349824
0.000184768
0.00327601
0.00104261
0.00210884
0.00144177
0.0011355
0.0016038
0.000529147
0.0016462
0.000163626
0.00162512
-6.42651e-05
0.00156815
-0.000202486
0.00149123
-0.000275544
0.00140654
-0.000304963
0.00132453
-0.000306545
0.00125239
-0.000292072
0.00119209
-0.000270627
0.0011404
-0.000248906
0.0010911
-0.000230778
0.00103815
-0.000217164
0.000977442
-0.000206872
0.000907797
-0.000197333
0.000831025
-0.000185143
0.000752072
-0.000165871
0.0006803
-0.000132954
0.000628624
-7.82893e-05
0.000610246
6.94898e-06
0.00064069
0.000131102
0.000731051
0.000291247
0.000879863
0.000456039
0.00106689
0.000568921
0.00125359
0.000568525
0.00140037
0.000421588
0.00151558
0.000135628
0.00165886
-0.000267192
0.00189937
-0.000846895
0.00165371
-0.00206285
-0.00394378
-0.00175263
0.00300856
-0.00315074
-0.00154253
-0.00290315
2.49195e-05
-0.00174678
0.00135302
-0.0002284
0.00197995
0.00126706
0.00178063
0.0022556
0.0011204
0.00277913
0.000612084
0.00301656
0.000291833
0.00308751
9.27973e-05
0.00305608
-3.27044e-05
0.00296084
-0.000107124
0.0028338
-0.000148368
0.00269504
-0.00016608
0.00255783
-0.000169208
0.00243001
-0.000164126
0.00231463
-0.00015513
0.00221089
-0.000145049
0.00211565
-0.000135424
0.0020252
-0.000126611
0.00193656
-0.00011813
0.00184832
-0.000109008
0.00176131
-9.80453e-05
0.00167939
-8.38612e-05
0.00161099
-6.44704e-05
0.0015696
-3.68235e-05
0.00157323
3.40328e-06
0.00164223
6.21847e-05
0.00179382
0.000139745
0.00202663
0.000223313
0.00231166
0.000283989
0.00259382
0.000286472
0.00280757
0.00020794
0.00289925
4.40559e-05
0.00283675
-0.000204594
0.00253344
-0.000543479
0.00156438
-0.00109369
-0.00229583
-0.00270378
-0.00397551
-0.000971306
-0.00252411
-0.00250993
-0.0011669
0.000803854
0.00257692
0.00369061
0.00429644
0.00458226
0.00466918
0.0046307
0.00451793
0.00436407
0.0041927
0.00401841
0.00384946
0.00368977
0.00354045
0.00340108
0.00327085
0.00314945
0.00303755
0.002937
0.00285107
0.002785
0.0027471
0.00275002
0.00281241
0.00295309
0.00317801
0.00346418
0.00375326
0.00396415
0.00401143
0.0038103
0.00327055
0.00218073
)
;

boundaryField
{
    floor
    {
        type            calculated;
        value           nonuniform List<scalar> 
29
(
0
0
0
0
0
0
0
0
0
0
0
0
0
0
0
0
0
0
0
0
-5.25905e-06
-1.32e-05
-1.84164e-05
-1.59487e-05
-3.30182e-06
-4.84041e-06
-1.27574e-05
-1.43298e-05
-1.3629e-05
)
;
    }
    ceiling
    {
        type            calculated;
        value           nonuniform List<scalar> 
43
(
7.0709e-06
5.34579e-06
4.45862e-06
1.0388e-05
1.08443e-05
1.00926e-05
9.29434e-06
7.66571e-06
6.81524e-06
6.37047e-06
6.12996e-06
5.99949e-06
5.90342e-06
5.7725e-06
5.61169e-06
5.42207e-06
5.20381e-06
4.95741e-06
4.68425e-06
4.38668e-06
4.06745e-06
3.72874e-06
3.37127e-06
2.9934e-06
2.5904e-06
2.15402e-06
1.67373e-06
1.1408e-06
5.47792e-07
-1.43116e-07
-8.71017e-07
-1.54988e-06
-2.11383e-06
-2.54792e-06
-2.8782e-06
-3.14415e-06
-3.39275e-06
-3.64451e-06
-3.7951e-06
-3.30035e-06
4.20621e-06
2.63379e-06
3.12917e-06
)
;
    }
    sWall
    {
        type            calculated;
        value           uniform -0.00016181;
    }
    nWall
    {
        type            calculated;
        value           nonuniform List<scalar> 6(-4.44865e-05 -5.08466e-05 -6.10292e-05 -6.84477e-05 -8.34741e-05 -0.000111703);
    }
    sideWalls
    {
        type            empty;
        value           nonuniform 0();
    }
    glass1
    {
        type            calculated;
        value           nonuniform List<scalar> 9(-5.09689e-05 -0.000146655 -0.000200395 -0.000226727 -0.000282131 -0.000338619 -0.000393916 -0.000444892 -0.000486542);
    }
    glass2
    {
        type            calculated;
        value           nonuniform List<scalar> 2(-0.000281607 -0.000304138);
    }
    sun
    {
        type            calculated;
        value           uniform 0;
    }
    heatsource1
    {
        type            calculated;
        value           nonuniform List<scalar> 3(2.03988e-07 2.04095e-07 2.04416e-07);
    }
    heatsource2
    {
        type            calculated;
        value           nonuniform List<scalar> 4(5.13664e-08 5.14542e-08 0 0);
    }
    Table_master
    {
        type            calculated;
        value           nonuniform List<scalar> 9(-1.54473e-07 -1.54549e-07 -1.54598e-07 -1.54656e-07 -1.54738e-07 -1.54771e-07 -1.54633e-07 -1.5449e-07 -1.54356e-07);
    }
    Table_slave
    {
        type            calculated;
        value           nonuniform List<scalar> 9(1.53599e-07 1.53684e-07 1.53761e-07 1.53842e-07 1.53924e-07 1.54005e-07 1.54046e-07 1.54016e-07 1.53942e-07);
    }
    inlet
    {
        type            calculated;
        value           uniform -0.000375797;
    }
    outlet
    {
        type            calculated;
        value           nonuniform List<scalar> 2(0.00285864 0.0012665);
    }
}


// ************************************************************************* //
