/*--------------------------------*- C++ -*----------------------------------*\
  =========                 |
  \\      /  F ield         | OpenFOAM: The Open Source CFD Toolbox
   \\    /   O peration     | Website:  https://openfoam.org
    \\  /    A nd           | Version:  6
     \\/     M anipulation  |
\*---------------------------------------------------------------------------*/
FoamFile
{
    version     2.0;
    format      ascii;
    class       volScalarField;
    location    "190";
    object      T;
}
// * * * * * * * * * * * * * * * * * * * * * * * * * * * * * * * * * * * * * //

dimensions      [0 0 0 1 0 0 0];

internalField   nonuniform List<scalar> 
459
(
303.896
303.711
303.63
303.262
302.945
302.781
302.686
302.649
302.623
302.603
302.589
302.581
302.575
302.572
302.575
302.347
302.313
302.267
302.172
302.068
302.003
301.979
301.974
301.972
301.971
301.974
301.981
301.996
302.02
302.042
302.075
302.082
302.07
302.071
304.282
304.6
304.569
304.387
304.057
303.621
303.111
302.854
302.732
302.666
302.636
302.622
302.611
302.599
302.583
302.558
302.49
302.371
302.369
302.363
302.34
302.278
302.209
302.118
302.043
302.014
302.009
302.009
302.012
302.042
302.089
302.138
302.191
302.156
302.104
302.081
304.768
304.767
304.752
304.719
304.567
304.277
303.895
303.483
302.932
302.746
302.689
302.669
302.657
302.642
302.62
302.592
302.561
302.455
302.434
302.436
302.449
302.475
302.474
302.276
302.196
302.153
302.118
302.085
302.057
302.112
302.191
302.25
302.303
302.223
302.193
302.17
304.998
304.791
304.749
304.733
304.671
304.503
304.212
303.821
303.292
302.854
302.745
302.721
302.711
302.697
302.675
302.644
302.608
302.58
302.551
302.563
302.593
302.628
302.652
302.669
302.681
302.683
302.686
302.689
302.692
302.695
302.696
302.695
302.683
302.624
302.561
302.516
302.515
304.858
304.53
304.504
304.568
304.608
304.533
304.31
303.945
303.424
302.942
302.804
302.778
302.775
302.77
302.758
302.741
302.72
302.7
302.686
302.687
302.703
302.719
302.728
302.734
302.737
302.739
302.742
302.747
302.753
302.76
302.767
302.774
302.781
302.781
302.782
302.783
302.785
302.812
302.793
302.781
304.735
304.31
304.33
304.456
304.554
304.52
304.319
303.958
303.432
302.993
302.861
302.836
302.84
302.843
302.839
302.829
302.815
302.8
302.79
302.786
302.787
302.789
302.79
302.789
302.788
302.788
302.79
302.796
302.805
302.819
302.835
302.854
302.875
302.897
302.921
302.944
302.963
302.964
302.888
302.822
304.606
304.201
304.293
304.452
304.527
304.481
304.275
303.908
303.412
303.035
302.914
302.897
302.906
302.918
302.922
302.918
302.908
302.896
302.884
302.875
302.869
302.864
302.858
302.852
302.845
302.839
302.837
302.84
302.851
302.871
302.896
302.924
302.952
302.979
303.002
303.019
303.027
303.022
302.982
302.833
304.467
304.162
304.277
304.444
304.473
304.404
304.198
303.848
303.407
303.088
302.98
302.965
302.979
302.996
303.007
303.009
303.004
302.994
302.982
302.971
302.96
302.95
302.939
302.927
302.914
302.9
302.888
302.882
302.886
302.902
302.929
302.96
302.991
303.018
303.04
303.057
303.073
303.089
303.105
303.126
304.324
304.059
304.047
304.353
304.379
304.301
304.113
303.805
303.429
303.175
303.084
303.064
303.071
303.087
303.099
303.105
303.103
303.096
303.085
303.073
303.06
303.047
303.033
303.017
302.999
302.979
302.957
302.938
302.924
302.921
302.928
302.942
302.961
302.977
302.989
302.999
303.018
303.043
303.078
303.18
303.641
304.136
304.241
304.192
304.043
303.792
303.485
303.318
303.244
303.215
303.207
303.209
303.212
303.213
303.21
303.203
303.192
303.18
303.166
303.152
303.136
303.119
303.099
303.076
303.051
303.024
302.999
302.976
302.961
302.955
302.956
302.961
302.964
302.967
302.971
302.98
302.995
303.04
303.846
304.06
304.108
304.101
304.004
303.794
303.603
303.496
303.437
303.405
303.385
303.371
303.36
303.349
303.338
303.326
303.312
303.297
303.281
303.265
303.247
303.229
303.209
303.187
303.161
303.134
303.103
303.071
303.041
303.017
303
302.99
302.983
302.98
302.981
302.987
302.998
303.047
303.942
303.877
303.881
304.01
304.033
304.037
303.981
303.835
303.741
303.682
303.643
303.615
303.592
303.57
303.548
303.527
303.506
303.485
303.463
303.442
303.421
303.4
303.38
303.359
303.339
303.318
303.297
303.274
303.249
303.22
303.188
303.154
303.122
303.096
303.076
303.062
303.051
303.041
303.033
303.064
)
;

boundaryField
{
    floor
    {
        type            wallHeatTransfer;
        Tinf            uniform 305.2;
        alphaWall       uniform 0.24;
        value           nonuniform List<scalar> 
29
(
303.015
302.992
302.942
302.927
302.967
302.983
302.977
302.957
302.934
302.931
302.96
303.002
303.027
302.975
302.902
302.831
302.754
302.716
302.719
302.77
302.77
302.666
302.66
302.818
303.015
302.992
302.937
302.836
302.887
)
;
    }
    ceiling
    {
        type            wallHeatTransfer;
        Tinf            uniform 303.2;
        alphaWall       uniform 0.24;
        value           nonuniform List<scalar> 
43
(
303.899
303.844
303.852
303.949
303.968
303.976
303.925
303.789
303.699
303.643
303.605
303.577
303.555
303.534
303.513
303.493
303.473
303.453
303.434
303.414
303.395
303.376
303.358
303.339
303.321
303.303
303.284
303.264
303.243
303.218
303.189
303.159
303.131
303.107
303.089
303.076
303.066
303.058
303.05
303.079
304.289
304.035
303.826
)
;
    }
    sWall
    {
        type            wallHeatTransfer;
        Tinf            uniform 315.2;
        alphaWall       uniform 0.36;
        value           uniform 304.896;
    }
    nWall
    {
        type            wallHeatTransfer;
        Tinf            uniform 307.2;
        alphaWall       uniform 0.36;
        value           nonuniform List<scalar> 6(303.444 303.444 303.465 303.527 303.582 303.717);
    }
    sideWalls
    {
        type            empty;
    }
    glass1
    {
        type            wallHeatTransfer;
        Tinf            uniform 315.2;
        alphaWall       uniform 4.3;
        value           nonuniform List<scalar> 9(311.099 311.202 310.444 309.596 309.339 309.138 308.932 308.688 308.358);
    }
    glass2
    {
        type            wallHeatTransfer;
        Tinf            uniform 307.2;
        alphaWall       uniform 4.3;
        value           nonuniform List<scalar> 2(305.708 305.634);
    }
    sun
    {
        type            wallHeatTransfer;
        Tinf            uniform 305.2;
        alphaWall       uniform 0.24;
        value           nonuniform List<scalar> 
14
(
304.01
303.83
303.748
303.414
303.148
303.026
302.98
302.975
302.977
302.982
302.989
302.994
302.999
303.005
)
;
    }
    heatsource1
    {
        type            fixedGradient;
        gradient        uniform 0;
    }
    heatsource2
    {
        type            fixedGradient;
        gradient        uniform 0;
    }
    Table_master
    {
        type            zeroGradient;
    }
    Table_slave
    {
        type            zeroGradient;
    }
    inlet
    {
        type            fixedValue;
        value           uniform 290.15;
    }
    outlet
    {
        type            zeroGradient;
    }
}


// ************************************************************************* //
