/*--------------------------------*- C++ -*----------------------------------*\
  =========                 |
  \\      /  F ield         | OpenFOAM: The Open Source CFD Toolbox
   \\    /   O peration     | Website:  https://openfoam.org
    \\  /    A nd           | Version:  6
     \\/     M anipulation  |
\*---------------------------------------------------------------------------*/
FoamFile
{
    version     2.0;
    format      ascii;
    class       volVectorField;
    location    "190";
    object      U;
}
// * * * * * * * * * * * * * * * * * * * * * * * * * * * * * * * * * * * * * //

dimensions      [0 1 -1 0 0 0 0];

internalField   nonuniform List<vector> 
459
(
(-0.0441072 0.0692294 0)
(-0.165553 -0.0131159 0)
(-0.116046 -0.0218202 0)
(-0.108717 0.00553461 0)
(-0.114895 0.0119584 0)
(-0.133482 0.00215321 0)
(-0.144165 -0.00778117 0)
(-0.137751 -0.0132952 0)
(-0.122757 -0.0174836 0)
(-0.102742 -0.017594 0)
(-0.082535 -0.0155974 0)
(-0.0634338 -0.0136949 0)
(-0.0447753 -0.0131914 0)
(-0.0320584 -0.0153788 0)
(-0.0536679 -0.0190772 0)
(0.0137085 0.0154844 0)
(-0.0419607 -0.00456197 0)
(-0.035026 -0.00379947 0)
(-0.0344698 0.000353627 0)
(-0.0349464 0.000424335 0)
(-0.0380045 -0.00210359 0)
(-0.0398495 -0.00491093 0)
(-0.0380548 -0.00618117 0)
(-0.0342477 -0.00695717 0)
(-0.0291855 -0.00829994 0)
(-0.0215282 -0.0106858 0)
(-0.0102031 -0.0139703 0)
(0.0024483 -0.0158742 0)
(0.0123037 -0.0108445 0)
(0.0201264 -0.00846224 0)
(0.0267281 -0.00929368 0)
(0.0330272 -0.0113185 0)
(0.0445322 -0.00475268 0)
(-0.0111787 0.0181384 0)
(0.235223 0.212007 0)
(0.042199 -0.066345 0)
(0.100942 -0.062005 0)
(0.09267 -0.00500889 0)
(0.0744179 0.0411708 0)
(0.025518 0.0515287 0)
(-0.0496967 0.0187166 0)
(-0.0948087 -0.0117599 0)
(-0.10339 -0.0269412 0)
(-0.0946703 -0.0304743 0)
(-0.0829779 -0.0281683 0)
(-0.0704366 -0.0258301 0)
(-0.0564271 -0.0255107 0)
(-0.0415441 -0.0281245 0)
(-0.028522 -0.0329212 0)
(-0.0125649 -0.0344988 0)
(0.0186669 0.000746949 0)
(0.112308 0.0255576 0)
(0.0333532 0.0138235 0)
(0.00798907 0.00615184 0)
(0.00278016 0.0035207 0)
(0.00516824 0.00258596 0)
(0.00648621 0.00667265 0)
(0.00415824 0.00874579 0)
(-0.00367099 0.00119376 0)
(-0.00945415 -0.00414783 0)
(-0.0102976 -0.00693129 0)
(-0.00899025 -0.0102719 0)
(-0.00437637 -0.0149572 0)
(-0.00657944 -0.0153788 0)
(-0.00732338 -0.00710015 0)
(-0.00451179 -0.00719302 0)
(-0.00142086 -0.0152326 0)
(0.00057825 -0.0204639 0)
(0.0287763 -0.00625301 0)
(-0.0803161 0.0436677 0)
(0.523114 0.154447 0)
(0.328158 -0.0320099 0)
(0.329766 -0.0235027 0)
(0.335879 0.0476361 0)
(0.281121 0.103336 0)
(0.201258 0.125658 0)
(0.114924 0.113345 0)
(0.0286623 0.0715017 0)
(-0.0573204 -0.00756743 0)
(-0.074879 -0.0314202 0)
(-0.0773113 -0.0337451 0)
(-0.0756322 -0.0336408 0)
(-0.0713751 -0.0354918 0)
(-0.0653758 -0.0394096 0)
(-0.0587837 -0.042938 0)
(-0.0528964 -0.0413656 0)
(-0.0513782 -0.0329873 0)
(0.0877497 0.0127618 0)
(-0.031725 0.0143226 0)
(-0.0247182 0.0119355 0)
(-0.0191103 0.00414271 0)
(-0.0145805 -0.00452227 0)
(-0.0114865 -0.0109464 0)
(0.0228175 0.00349719 0)
(0.025633 0.0031804 0)
(0.0242785 0.00114881 0)
(0.019884 -0.00182041 0)
(0.0134462 -0.00588691 0)
(0.00276433 -0.012332 0)
(-0.0209643 -0.0131007 0)
(-0.0316271 -0.00779775 0)
(-0.0347598 -0.00742414 0)
(-0.0280826 -0.0091611 0)
(-0.0420233 -4.0676e-06 0)
(-0.0703795 0.0156148 0)
(-0.148926 0.0321618 0)
(0.684728 -0.345645 0)
(0.317408 -0.261989 0)
(0.352866 -0.119215 0)
(0.367222 0.0260844 0)
(0.314687 0.135489 0)
(0.237443 0.188367 0)
(0.156818 0.189136 0)
(0.077986 0.150012 0)
(0.00113037 0.0713639 0)
(-0.0504699 -0.0073923 0)
(-0.0679758 -0.0253781 0)
(-0.0774405 -0.0301607 0)
(-0.0834227 -0.0339157 0)
(-0.0882433 -0.0376309 0)
(-0.0937078 -0.0387581 0)
(-0.101631 -0.0321283 0)
(-0.11136 -0.00979515 0)
(-0.1075 0.035506 0)
(-0.0770823 0.0145222 0)
(-0.0798112 0.0141226 0)
(-0.0689695 0.00662924 0)
(-0.0658453 -0.00202501 0)
(-0.065227 -0.00985434 0)
(-0.067932 -0.0149111 0)
(-0.0653801 -0.0108773 0)
(-0.0542181 -0.0105665 0)
(-0.0432516 -0.0111405 0)
(-0.0321258 -0.0116423 0)
(-0.0211066 -0.0119249 0)
(-0.0106618 -0.011877 0)
(3.88213e-05 -0.0112083 0)
(0.00950883 -0.00991794 0)
(0.0193266 -0.00812673 0)
(0.0187271 -0.00936574 0)
(0.0237661 -0.00207494 0)
(0.0334784 0.000950387 0)
(-0.0763735 0.00147582 0)
(0.663348 -0.522331 0)
(0.0720934 -0.284018 0)
(0.180055 -0.0479635 0)
(0.229979 0.109565 0)
(0.206697 0.206652 0)
(0.160424 0.255168 0)
(0.110259 0.254707 0)
(0.0588415 0.210984 0)
(0.0065692 0.125282 0)
(-0.0331979 0.0312852 0)
(-0.0563331 -0.00651463 0)
(-0.0708974 -0.0193687 0)
(-0.08057 -0.0262465 0)
(-0.0885969 -0.0315264 0)
(-0.0962724 -0.0351605 0)
(-0.103418 -0.0356579 0)
(-0.107664 -0.030287 0)
(-0.107551 -0.0163022 0)
(-0.101055 -0.00273595 0)
(-0.0915799 0.00357222 0)
(-0.0819515 0.000751997 0)
(-0.0758606 -0.00448409 0)
(-0.0722816 -0.0100408 0)
(-0.0700934 -0.0137129 0)
(-0.0662764 -0.01377 0)
(-0.060133 -0.0146236 0)
(-0.0532885 -0.015411 0)
(-0.0462614 -0.0158438 0)
(-0.0393981 -0.0157367 0)
(-0.0329804 -0.015079 0)
(-0.0269567 -0.0139552 0)
(-0.0210025 -0.0128038 0)
(-0.0143104 -0.0123473 0)
(-0.00664627 -0.0142184 0)
(0.0085521 -0.0138235 0)
(0.0376644 -0.0106719 0)
(0.0589185 -0.00632732 0)
(0.1055 -0.0146646 0)
(0.134485 0.00930949 0)
(-0.0464354 0.0648913 0)
(0.618558 -0.608704 0)
(-0.136007 -0.307424 0)
(0.0781601 -0.03967 0)
(0.10795 0.12291 0)
(0.0850111 0.229802 0)
(0.0630034 0.287603 0)
(0.0419264 0.291667 0)
(0.0188802 0.247118 0)
(-0.00713768 0.155396 0)
(-0.0276265 0.0593927 0)
(-0.0444215 0.0134842 0)
(-0.0579922 -0.00708944 0)
(-0.0667701 -0.0171741 0)
(-0.0738711 -0.0232557 0)
(-0.0803197 -0.0264864 0)
(-0.0859584 -0.0262899 0)
(-0.0893099 -0.0222755 0)
(-0.089223 -0.0159115 0)
(-0.0855437 -0.00934167 0)
(-0.0794172 -0.00567437 0)
(-0.0731151 -0.0062669 0)
(-0.0685105 -0.00928991 0)
(-0.0657477 -0.0131627 0)
(-0.0641006 -0.0162445 0)
(-0.0623036 -0.0178729 0)
(-0.0599686 -0.0192198 0)
(-0.0575383 -0.0201396 0)
(-0.055378 -0.0203661 0)
(-0.0538201 -0.0197732 0)
(-0.053093 -0.0185147 0)
(-0.0531652 -0.0170575 0)
(-0.0536936 -0.016208 0)
(-0.0540756 -0.0171079 0)
(-0.0532054 -0.02094 0)
(-0.0476552 -0.0276035 0)
(-0.0338893 -0.0385987 0)
(-0.014706 -0.0572489 0)
(0.0133903 -0.0683558 0)
(0.106597 0.00189841 0)
(-0.0771707 0.121751 0)
(0.511279 -0.589126 0)
(-0.214671 -0.325884 0)
(0.0263716 -0.0744687 0)
(-0.00299989 0.15327 0)
(-0.0314452 0.235515 0)
(-0.0248263 0.292215 0)
(-0.01839 0.299566 0)
(-0.0160106 0.256587 0)
(-0.0191847 0.167376 0)
(-0.0237247 0.0757797 0)
(-0.0316997 0.0263196 0)
(-0.0398168 0.00236713 0)
(-0.0461826 -0.0104559 0)
(-0.0511225 -0.0178477 0)
(-0.055635 -0.0219016 0)
(-0.0595147 -0.0227876 0)
(-0.0619547 -0.0206557 0)
(-0.0621782 -0.0167796 0)
(-0.0601386 -0.0127683 0)
(-0.0566635 -0.0103466 0)
(-0.0531279 -0.0102881 0)
(-0.0506667 -0.011929 0)
(-0.0496103 -0.0143605 0)
(-0.0496936 -0.0166308 0)
(-0.0503906 -0.0182955 0)
(-0.0515484 -0.0194446 0)
(-0.0534246 -0.0198306 0)
(-0.0564099 -0.0191923 0)
(-0.06101 -0.0174962 0)
(-0.0676933 -0.0151669 0)
(-0.0767406 -0.0130008 0)
(-0.0879841 -0.0118484 0)
(-0.100712 -0.0127556 0)
(-0.114014 -0.0174412 0)
(-0.126612 -0.0283278 0)
(-0.13662 -0.0478989 0)
(-0.139728 -0.0734815 0)
(-0.126561 -0.0838713 0)
(-0.0856907 -0.0239138 0)
(-0.158626 0.223184 0)
(0.31632 -0.469431 0)
(-0.283282 -0.270803 0)
(-0.186923 -0.0830637 0)
(-0.10538 0.166592 0)
(-0.133312 0.21569 0)
(-0.092651 0.267691 0)
(-0.0600307 0.28071 0)
(-0.0359829 0.244699 0)
(-0.0208666 0.163806 0)
(-0.0119772 0.0801891 0)
(-0.0115441 0.0318995 0)
(-0.0146797 0.0072032 0)
(-0.0181471 -0.0064327 0)
(-0.0208612 -0.0143219 0)
(-0.0236785 -0.0186831 0)
(-0.0263066 -0.0202463 0)
(-0.0282178 -0.0194492 0)
(-0.0288889 -0.0171734 0)
(-0.0282324 -0.0145847 0)
(-0.0267303 -0.0127353 0)
(-0.0252214 -0.0121656 0)
(-0.0244593 -0.0127003 0)
(-0.0247975 -0.0138704 0)
(-0.0262236 -0.0151001 0)
(-0.0285468 -0.0159654 0)
(-0.0317418 -0.0161494 0)
(-0.0359968 -0.0151534 0)
(-0.0417252 -0.0124754 0)
(-0.0496072 -0.00780345 0)
(-0.060212 -0.00127705 0)
(-0.0747633 0.00612028 0)
(-0.0954391 0.012009 0)
(-0.123046 0.0130058 0)
(-0.157012 0.00599856 0)
(-0.195539 -0.010209 0)
(-0.234686 -0.0334263 0)
(-0.266003 -0.0571676 0)
(-0.29356 -0.0731767 0)
(-0.356434 -0.0669187 0)
(-0.59962 -0.0140939 0)
(0.032045 -0.31517 0)
(-0.589827 -0.231708 0)
(-0.746004 -0.174436 0)
(-0.183112 0.083468 0)
(-0.216506 0.158218 0)
(-0.134178 0.21756 0)
(-0.079071 0.240643 0)
(-0.037492 0.215575 0)
(-0.00640105 0.145497 0)
(0.0144814 0.0732937 0)
(0.021283 0.0322176 0)
(0.0216954 0.00940179 0)
(0.0202022 -0.00392117 0)
(0.0185647 -0.0117426 0)
(0.0163978 -0.0159646 0)
(0.0139819 -0.0176747 0)
(0.011741 -0.0175404 0)
(0.0101062 -0.0162284 0)
(0.00924846 -0.0144955 0)
(0.00895723 -0.0130094 0)
(0.0087502 -0.0121479 0)
(0.00813419 -0.0119208 0)
(0.00680287 -0.0121267 0)
(0.00467129 -0.0124476 0)
(0.00183049 -0.0125476 0)
(-0.0016486 -0.0120307 0)
(-0.00547592 -0.0103341 0)
(-0.00946081 -0.00687977 0)
(-0.0133151 -0.00122095 0)
(-0.0162819 0.00688633 0)
(-0.0198472 0.0170225 0)
(-0.0238119 0.0277078 0)
(-0.0285294 0.0360124 0)
(-0.0340301 0.0385687 0)
(-0.0399644 0.0324105 0)
(-0.0479045 0.0155088 0)
(-0.0636209 -0.0136744 0)
(-0.0532171 -0.0594343 0)
(-0.070153 -0.148443 0)
(-0.520697 -0.256771 0)
(-1.69425 -0.210347 0)
(-0.0687927 -0.106187 0)
(-0.221314 0.0570369 0)
(-0.135118 0.147294 0)
(-0.0722793 0.184007 0)
(-0.0179941 0.171165 0)
(0.0286184 0.1112 0)
(0.056199 0.0598818 0)
(0.0683568 0.02854 0)
(0.071838 0.010056 0)
(0.0714451 -0.00140647 0)
(0.0693284 -0.0086449 0)
(0.0661922 -0.012677 0)
(0.0625188 -0.0144364 0)
(0.0587723 -0.0146755 0)
(0.0553533 -0.0139942 0)
(0.0524759 -0.0128973 0)
(0.0501041 -0.011784 0)
(0.0480024 -0.0108973 0)
(0.0458712 -0.0103015 0)
(0.0434699 -0.00993015 0)
(0.0406759 -0.00962959 0)
(0.0375041 -0.00919527 0)
(0.0340899 -0.00837505 0)
(0.0307473 -0.00678807 0)
(0.027965 -0.0039916 0)
(0.0265127 0.000415946 0)
(0.0268008 0.00687283 0)
(0.0293338 0.015329 0)
(0.0343659 0.0242065 0)
(0.0413197 0.0306427 0)
(0.0490502 0.0314776 0)
(0.0562602 0.0250858 0)
(0.0619636 0.0132394 0)
(0.0680325 -3.50012e-05 0)
(0.077984 -0.015856 0)
(0.13707 -0.0752899 0)
(-0.157455 -0.197772 0)
(-0.487012 0.0527927 0)
(0.0495444 -0.122941 0)
(-0.144532 -0.0218294 0)
(-0.106048 0.0734114 0)
(-0.0465315 0.117695 0)
(0.0245608 0.11043 0)
(0.0778723 0.0675588 0)
(0.111421 0.0327522 0)
(0.128127 0.00982273 0)
(0.134001 -0.00488793 0)
(0.133921 -0.014188 0)
(0.130438 -0.0193251 0)
(0.12525 -0.021779 0)
(0.119272 -0.0225192 0)
(0.113148 -0.0222309 0)
(0.107322 -0.0213789 0)
(0.102031 -0.0202714 0)
(0.0973134 -0.0191043 0)
(0.0930636 -0.0179769 0)
(0.0891099 -0.0169043 0)
(0.08529 -0.0158428 0)
(0.0814983 -0.0147113 0)
(0.077714 -0.0134051 0)
(0.0740256 -0.0117948 0)
(0.0706853 -0.00969805 0)
(0.068185 -0.00688056 0)
(0.0673396 -0.00305011 0)
(0.0687128 0.00220856 0)
(0.0733058 0.00870526 0)
(0.0815149 0.0153693 0)
(0.092702 0.0202056 0)
(0.105103 0.0210438 0)
(0.11619 0.0167253 0)
(0.123479 0.00738998 0)
(0.124524 -0.006845 0)
(0.117031 -0.0272702 0)
(0.150607 -0.0680527 0)
(-0.200788 -0.13681 0)
(0.255607 -0.122498 0)
(-0.1806 -0.0525697 0)
(-0.207746 0.135681 0)
(0.00323682 5.46024e-05 0)
(-0.117869 0.0505729 0)
(-0.0831711 0.0775303 0)
(-0.0133874 0.100728 0)
(0.0765386 0.0910996 0)
(0.135605 0.0709337 0)
(0.174649 0.0561373 0)
(0.195016 0.0472085 0)
(0.202499 0.0423169 0)
(0.2025 0.0395199 0)
(0.198227 0.0373145 0)
(0.191936 0.0355778 0)
(0.184654 0.0342152 0)
(0.177024 0.0330931 0)
(0.169497 0.0320768 0)
(0.162338 0.0310527 0)
(0.155647 0.029934 0)
(0.149422 0.0286605 0)
(0.14362 0.0271954 0)
(0.138203 0.0255135 0)
(0.133172 0.0235882 0)
(0.128579 0.0213781 0)
(0.12453 0.0188246 0)
(0.121202 0.0158782 0)
(0.118893 0.0125564 0)
(0.118157 0.0089602 0)
(0.119307 0.00525777 0)
(0.123414 0.00217147 0)
(0.131132 0.000122687 0)
(0.142172 -0.00132271 0)
(0.154837 -0.003339 0)
(0.166152 -0.007073 0)
(0.172938 -0.0132154 0)
(0.170665 -0.0215483 0)
(0.155691 -0.032607 0)
(0.173025 -0.0509952 0)
(-0.227528 -0.0883435 0)
)
;

boundaryField
{
    floor
    {
        type            noSlip;
    }
    ceiling
    {
        type            noSlip;
    }
    sWall
    {
        type            noSlip;
    }
    nWall
    {
        type            noSlip;
    }
    sideWalls
    {
        type            empty;
    }
    glass1
    {
        type            noSlip;
    }
    glass2
    {
        type            noSlip;
    }
    sun
    {
        type            noSlip;
    }
    heatsource1
    {
        type            noSlip;
    }
    heatsource2
    {
        type            noSlip;
    }
    Table_master
    {
        type            noSlip;
    }
    Table_slave
    {
        type            noSlip;
    }
    inlet
    {
        type            fixedValue;
        value           uniform (0.1 0 0);
    }
    outlet
    {
        type            zeroGradient;
    }
}


// ************************************************************************* //
