/*--------------------------------*- C++ -*----------------------------------*\
  =========                 |
  \\      /  F ield         | OpenFOAM: The Open Source CFD Toolbox
   \\    /   O peration     | Website:  https://openfoam.org
    \\  /    A nd           | Version:  6
     \\/     M anipulation  |
\*---------------------------------------------------------------------------*/
FoamFile
{
    version     2.0;
    format      ascii;
    class       surfaceScalarField;
    location    "1500";
    object      phi;
}
// * * * * * * * * * * * * * * * * * * * * * * * * * * * * * * * * * * * * * //

dimensions      [1 0 -1 0 0 0 0];

internalField   nonuniform List<scalar> 
852
(
-0.00304768
0.00310751
-0.00413687
0.00108919
-0.00494327
0.000806401
-0.00555477
0.000611493
-0.00593918
0.000384409
-0.00607216
0.000132978
-0.00593238
-0.000139777
-0.00551098
-0.000421399
-0.00483794
-0.000673042
-0.00398289
-0.000855055
-0.00303961
-0.000943285
-0.00210692
-0.000932689
-0.00127368
-0.00083324
-0.000585102
-0.000688583
-0.000583015
-0.000826197
0.000829902
-0.00050737
-0.00031883
0.000158729
-0.000666102
0.000696927
-0.0005382
0.00106099
-0.000364071
0.00129135
-0.000230356
0.00141786
-0.000126517
0.00148016
-6.23002e-05
0.00151524
-3.50847e-05
0.00153699
-2.1754e-05
0.00154958
-1.25925e-05
0.00155455
-4.97086e-06
0.00155025
4.29102e-06
0.00152848
2.17714e-05
0.00146669
6.17837e-05
0.00132698
0.000139711
0.00109659
0.000230387
0.000809017
0.000287566
0.000814027
-0.0021704
0.00543872
-0.00322192
0.00214071
-0.00404658
0.00163105
-0.00464754
0.00121245
-0.00502557
0.000762434
-0.00516461
0.000272021
-0.005041
-0.000263386
-0.00465327
-0.000809133
-0.00404392
-0.0012824
-0.00328875
-0.00161022
-0.0024759
-0.00175613
-0.00168621
-0.00172238
-0.000991541
-0.00152791
-0.000464175
-0.00121595
-0.000227375
-0.000819816
8.68767e-05
-0.000314305
8.68225e-05
0.000341127
0.000499486
0.000773533
-0.000751239
0.00104616
-0.000938735
0.0012796
-0.000771641
0.00145975
-0.000544223
0.00156983
-0.000340439
0.00158843
-0.000145122
0.00159303
-6.68974e-05
0.00159856
-4.06169e-05
0.00160316
-2.63577e-05
0.00160617
-1.561e-05
0.00160771
-6.50644e-06
0.00160697
5.02751e-06
0.00160035
2.83813e-05
0.00155844
0.000103688
0.00137872
0.000319427
0.00107009
0.000539013
0.000687316
0.000670341
0.00151407
-0.00151472
0.00719917
-0.00241705
0.00304304
-0.00314384
0.00235784
-0.00365414
0.00172275
-0.0039771
0.00108539
-0.00409025
0.000385175
-0.00394972
-0.000403925
-0.00356005
-0.0011988
-0.0029877
-0.00185476
-0.00231722
-0.0022807
-0.00162758
-0.00244578
-0.000975323
-0.00237464
-0.000406973
-0.00209626
4.55731e-05
-0.0016685
0.000342638
-0.00111688
0.000481691
-0.000453359
0.000568512
0.0016092
-0.0010982
0.00183823
-0.00098027
0.00178788
-0.000888394
0.0017717
-0.000755456
0.00179109
-0.000563617
0.00181513
-0.000364482
0.00167016
0.00160341
0.00156295
0.00153674
0.00152128
0.00151492
0.0015201
0.00154863
0.00165247
0.0013549
0.000616995
0.000999275
0.000894636
0.000570484
0.00109913
0.00210375
-0.0010525
0.00856977
-0.00176277
0.00375331
-0.00223672
0.00283179
-0.00256168
0.00204771
-0.00275492
0.00127863
-0.00277153
0.000401787
-0.00254878
-0.000626682
-0.00212787
-0.0016197
-0.00160339
-0.00237924
-0.0010537
-0.00283039
-0.00053306
-0.00296642
-6.48027e-05
-0.0028429
0.000338729
-0.0024998
0.000678842
-0.00200861
0.000989704
-0.00142775
0.00135723
-0.00082089
0.00223129
-0.000305549
0.00264414
-0.000402534
0.00222947
-0.000683529
0.00208032
-0.000831122
0.00194653
-0.000754607
0.00182899
-0.000637917
0.00175845
-0.000493085
0.00171428
-0.000320317
0.00184435
-0.000130225
0.00192062
-7.64234e-05
0.00197839
-5.79222e-05
0.0020189
-4.06743e-05
0.0020275
-8.75616e-06
0.00198338
4.3965e-05
0.00186245
0.00012077
0.00163251
0.000229789
0.00123811
0.000394242
0.00109436
0.000760739
0.000780993
0.001208
0.000301659
0.00157846
0.00243048
-0.00073318
0.00968252
-0.00126741
0.00428753
-0.00135204
0.00291641
-0.00138838
0.00208405
-0.00136428
0.00125452
-0.00116294
0.000200446
-0.000776067
-0.00101356
-0.000330026
-0.00206575
8.98452e-05
-0.00279912
0.000442662
-0.00318321
0.000719983
-0.00324374
0.000928473
-0.00305139
0.00109392
-0.00266524
0.00124043
-0.00215512
0.00140061
-0.00158793
0.00162068
-0.00104096
0.0019418
-0.00062667
0.00205118
-0.000511919
0.00195074
-0.000583088
0.00175538
-0.000635767
0.00158525
-0.000584483
0.00144189
-0.000494557
0.00133845
-0.000389643
0.00129011
-0.000271978
0.0013271
-0.000167223
0.00137236
-0.000121688
0.00142177
-0.000107333
0.00147174
-9.06431e-05
0.00151094
-4.79563e-05
0.00151959
3.53121e-05
0.00147782
0.000162532
0.00137372
0.000333884
0.00120863
0.000559335
0.0010622
0.000907163
0.000900008
0.00137019
0.000508441
0.00197002
0.000393986
0.00254493
-0.00110412
0.0014979
-0.001567
0.000462672
-0.00151305
-0.000634931
0.0107489
-0.000991443
0.00464404
-0.000529575
0.00245454
-8.84684e-05
0.00164294
0.000325131
0.00084092
0.000855246
-0.000329672
0.00137858
-0.00153689
0.00175538
-0.00244255
0.00196578
-0.00300952
0.00203564
-0.00325307
0.00200469
-0.00321279
0.00190402
-0.00295071
0.0017731
-0.00253432
0.00164882
-0.00203085
0.00156125
-0.00150037
0.00153104
-0.00101075
0.00154671
-0.000642345
0.00150192
-0.000467127
0.00135812
-0.000439293
0.00115859
-0.000436236
0.000977193
-0.00040309
0.000833244
-0.00035061
0.000735024
-0.000291426
0.000693146
-0.000230102
0.000708418
-0.000182498
0.000754328
-0.0001676
0.000817621
-0.000170629
0.000892879
-0.000165904
0.000974414
-0.000129495
0.00104764
-3.79183e-05
0.00109478
0.000115391
0.00111469
0.000313972
0.00111499
0.000559029
0.00114376
0.000878386
0.00125515
0.00125881
0.00145389
0.00177128
0.00195919
0.00203962
0.00224349
0.0012136
0.00185969
0.000846467
0.000411228
-0.000659536
0.0118874
-0.000506434
0.00449094
0.000736778
0.00121132
0.00167718
0.000702538
0.00255216
-3.40661e-05
0.00334656
-0.00112407
0.00382213
-0.00201247
0.00398295
-0.00260336
0.0038802
-0.00290676
0.00358188
-0.00295476
0.00316024
-0.00279114
0.0026797
-0.00247017
0.0021988
-0.00205342
0.00176447
-0.00159652
0.00140388
-0.00113978
0.00113037
-0.000737236
0.000934179
-0.000446159
0.000764061
-0.00029701
0.000581473
-0.000256707
0.000397136
-0.000251901
0.000238266
-0.000244223
0.000118004
-0.000230351
4.13493e-05
-0.000214774
1.25568e-05
-0.000201313
2.81373e-05
-0.000198082
7.25268e-05
-0.000211993
0.000134849
-0.000232955
0.000213515
-0.000244573
0.000312968
-0.000228951
0.000438935
-0.000163889
0.000576017
-2.16938e-05
0.000713778
0.000176207
0.000866951
0.000405853
0.00107458
0.000670751
0.00139236
0.000941024
0.00189497
0.00126866
0.00264764
0.00128695
0.00323229
0.000628951
0.00329566
0.000783091
0.00377626
0.00278532
0.00963832
0.00357378
0.00370248
0.00421832
0.000566778
0.00525624
-0.000335379
0.00618429
-0.000962119
0.00662146
-0.00156124
0.00661127
-0.00200228
0.00623056
-0.00222265
0.00557213
-0.00224833
0.00473826
-0.00212089
0.00382812
-0.001881
0.00292422
-0.00156627
0.002093
-0.0012222
0.00138082
-0.000884346
0.000804135
-0.00056309
0.000374496
-0.0003076
8.01255e-05
-0.00015179
-0.000125915
-9.09714e-05
-0.000290826
-9.17988e-05
-0.000431382
-0.000111347
-0.000545766
-0.000129842
-0.000631163
-0.000144956
-0.000686932
-0.000159008
-0.000713454
-0.000174794
-0.00071544
-0.000196099
-0.00070317
-0.000224267
-0.000683019
-0.000253108
-0.00065409
-0.000273505
-0.000607438
-0.000275606
-0.000523529
-0.000247801
-0.000371533
-0.000173693
-0.000168533
-2.67968e-05
6.96246e-05
0.000167693
0.000366125
0.000374248
0.000731676
0.00057547
0.00122315
0.000777185
0.00173753
0.000772561
0.00182782
0.000538658
0.000814929
0.00179598
0.0048867
0.0102325
0.0139312
0.0129915
0.00150653
0.0123669
0.000289166
0.0115881
-0.000183285
0.0105204
-0.000493511
0.00918588
-0.000667773
0.00769924
-0.000736014
0.00616371
-0.000712795
0.00466815
-0.000625337
0.00329045
-0.000503297
0.00207969
-0.000355513
0.00106724
-0.000209758
0.000259869
-7.69761e-05
-0.000327518
2.42947e-05
-0.000696876
6.17556e-05
-0.000909123
6.04544e-05
-0.00104091
4.08075e-05
-0.00114341
1.06983e-05
-0.00123398
-2.07723e-05
-0.00131366
-5.01677e-05
-0.00138194
-7.66813e-05
-0.00143959
-0.000101361
-0.00148948
-0.000124909
-0.00153754
-0.00014804
-0.00159244
-0.000169368
-0.00166214
-0.000183414
-0.00175399
-0.000181659
-0.00187649
-0.000153107
-0.00204068
-8.36188e-05
-0.00225372
3.93484e-05
-0.00250395
0.000223431
-0.00282164
0.000485372
-0.00329162
0.000844226
-0.00401397
0.00129782
-0.0050515
0.00181471
-0.00652434
0.0022454
-0.00834776
0.00236208
-0.0080345
0.00148271
-0.00282135
0.00438058
0.00336573
0.00335331
0.00131645
0.00362713
-0.000457096
0.00354466
-0.000411044
0.00306644
-0.000189548
0.00236136
-3.094e-05
0.00154378
0.000104779
0.000709981
0.000208459
-6.07387e-05
0.000267419
-0.000697463
0.000281207
-0.00116574
0.000258514
-0.00147467
0.000231956
-0.00164912
0.000198735
-0.00174452
0.00015716
-0.00180211
0.000118037
-0.00184603
8.47196e-05
-0.00189097
5.56415e-05
-0.0019423
3.05526e-05
-0.0020006
8.13011e-06
-0.00206392
-1.33632e-05
-0.00212998
-3.53116e-05
-0.00220126
-5.36298e-05
-0.00228152
-6.7785e-05
-0.00237427
-7.66231e-05
-0.0024807
-7.69876e-05
-0.0025986
-6.37582e-05
-0.00272077
-3.09367e-05
-0.00283491
3.05136e-05
-0.00293288
0.00013732
-0.00301689
0.00030743
-0.0030935
0.000561986
-0.00316785
0.000918566
-0.00323779
0.00136776
-0.00324668
0.0018236
-0.00308788
0.00208659
-0.00211236
0.00138656
-0.000205525
-0.000424124
-0.00294272
-0.000784552
0.00423482
-0.000360473
0.000892369
-0.00105599
0.000238415
-0.0015925
0.000125467
-0.00195763
0.000175578
-0.00222466
0.00023608
-0.00240866
0.000288775
-0.00253142
0.000331218
-0.00260666
0.00034265
-0.00264218
0.000316727
-0.00264989
0.000266218
-0.00263008
0.000212146
-0.00259254
0.000161197
-0.00255236
0.000116975
-0.00251742
8.30911e-05
-0.00249108
5.83724e-05
-0.00247526
3.98194e-05
-0.00246971
2.50059e-05
-0.00247369
1.21061e-05
-0.00248612
-9.38149e-07
-0.00250697
-1.44721e-05
-0.00253597
-2.46272e-05
-0.0025729
-3.08584e-05
-0.00261686
-3.26645e-05
-0.00266535
-2.85024e-05
-0.00271354
-1.55733e-05
-0.00275398
9.49868e-06
-0.00277309
4.96243e-05
-0.0027508
0.000115023
-0.00266312
0.000219741
-0.00247872
0.000377589
-0.0021699
0.000609742
-0.00173072
0.000928581
-0.00112835
0.00122123
-2.77856e-05
0.000986022
0.00183408
-0.000475317
0.00346278
-0.00205282
0.000611342
-0.00788131
-0.0111418
-0.00685195
-0.00593169
-0.00567429
-0.00553356
-0.00534504
-0.00509765
-0.00479869
-0.00445802
-0.00410632
-0.00378063
-0.00350534
-0.0032839
-0.00311317
-0.00298644
-0.00289337
-0.00282481
-0.00277463
-0.00273913
-0.00271643
-0.00270675
-0.00271062
-0.00272472
-0.00274516
-0.00276756
-0.00278598
-0.00279169
-0.00277258
-0.00271364
-0.00258962
-0.00236123
-0.00197537
-0.00135775
-0.000421729
0.000806417
0.00179908
0.0013307
-0.000716046
)
;

boundaryField
{
    floor
    {
        type            calculated;
        value           nonuniform List<scalar> 
29
(
0
0
0
0
0
0
0
0
0
0
0
0
0
0
0
0
0
0
0
0
-5.01429e-06
-1.27306e-05
-1.91972e-05
-2.50768e-05
-2.08921e-06
-3.70744e-06
-1.07146e-05
-1.15107e-05
-1.03147e-05
)
;
    }
    ceiling
    {
        type            calculated;
        value           nonuniform List<scalar> 
43
(
-5.90493e-05
-5.6831e-05
-5.50511e-05
-2.78943e-05
-1.89985e-05
-1.52604e-05
-1.29445e-05
-1.13181e-05
-1.01928e-05
-9.45551e-06
-9.05682e-06
-8.96001e-06
-9.07939e-06
-9.29643e-06
-9.53457e-06
-9.76514e-06
-9.98278e-06
-1.01849e-05
-1.03625e-05
-1.05019e-05
-1.05917e-05
-1.06259e-05
-1.06021e-05
-1.05327e-05
-1.04215e-05
-1.02718e-05
-1.00862e-05
-9.86612e-06
-9.61115e-06
-9.32117e-06
-9.00153e-06
-8.65342e-06
-8.27817e-06
-7.87587e-06
-7.44574e-06
-6.92148e-06
-6.64685e-06
-6.93913e-06
-6.07965e-06
-3.76286e-06
6.19492e-06
3.78286e-06
-8.45315e-05
)
;
    }
    sWall
    {
        type            calculated;
        value           uniform -0.000279073;
    }
    nWall
    {
        type            calculated;
        value           nonuniform List<scalar> 6(-5.41656e-05 -6.45878e-05 -6.93719e-05 -8.415e-05 -9.12896e-05 -0.000100945);
    }
    sideWalls
    {
        type            empty;
        value           nonuniform 0();
    }
    glass1
    {
        type            calculated;
        value           nonuniform List<scalar> 9(-5.98353e-05 -0.000160807 -0.000245741 -0.000318092 -0.00037958 -0.000431483 -0.00047888 -0.000536291 -0.000600421);
    }
    glass2
    {
        type            calculated;
        value           nonuniform List<scalar> 2(-0.000295518 -0.000326455);
    }
    sun
    {
        type            calculated;
        value           uniform 0;
    }
    heatsource1
    {
        type            calculated;
        value           nonuniform List<scalar> 3(2.05045e-07 2.04933e-07 2.04953e-07);
    }
    heatsource2
    {
        type            calculated;
        value           nonuniform List<scalar> 4(5.14302e-08 5.1529e-08 0 0);
    }
    Table_master
    {
        type            calculated;
        value           nonuniform List<scalar> 9(-1.53798e-07 -1.53893e-07 -1.53927e-07 -1.53949e-07 -1.53965e-07 -1.53975e-07 -1.5398e-07 -1.53974e-07 -1.53941e-07);
    }
    Table_slave
    {
        type            calculated;
        value           nonuniform List<scalar> 9(1.5366e-07 1.53687e-07 1.53668e-07 1.53654e-07 1.53651e-07 1.53654e-07 1.53673e-07 1.53721e-07 1.53808e-07);
    }
    inlet
    {
        type            calculated;
        value           uniform -0.00623978;
    }
    outlet
    {
        type            calculated;
        value           nonuniform List<scalar> 2(0.00821942 0.00331734);
    }
}


// ************************************************************************* //
