/*--------------------------------*- C++ -*----------------------------------*\
  =========                 |
  \\      /  F ield         | OpenFOAM: The Open Source CFD Toolbox
   \\    /   O peration     | Website:  https://openfoam.org
    \\  /    A nd           | Version:  6
     \\/     M anipulation  |
\*---------------------------------------------------------------------------*/
FoamFile
{
    version     2.0;
    format      ascii;
    class       volScalarField;
    location    "1300";
    object      nut;
}
// * * * * * * * * * * * * * * * * * * * * * * * * * * * * * * * * * * * * * //

dimensions      [0 2 -1 0 0 0 0];

internalField   nonuniform List<scalar> 
459
(
0.00113432
0.00124148
0.00126428
0.00132642
0.00138468
0.00143985
0.00149473
0.00154552
0.00157981
0.00159182
0.00157643
0.00153047
0.0014531
0.00134925
0.00123328
0.000507812
0.000612382
0.000686939
0.000683783
0.000660112
0.000628871
0.000589338
0.000550162
0.000514654
0.000483175
0.000455342
0.000430658
0.000408756
0.000389129
0.0003711
0.000353809
0.000336131
0.000326819
0.000301109
0.00154762
0.00386624
0.00373161
0.00435531
0.00496816
0.00557327
0.00608986
0.0064943
0.00685213
0.00713508
0.00730592
0.0073253
0.00713314
0.00657574
0.00504333
0.00126563
0.000715004
0.000541657
0.00112798
0.00156934
0.00189459
0.00206946
0.00206111
0.0016446
0.00141467
0.00125108
0.00112584
0.00102639
0.000945436
0.000875579
0.000810939
0.000748605
0.000693173
0.000643309
0.000777344
0.000405086
0.00188888
0.0052877
0.00465164
0.0058357
0.00643332
0.0068795
0.00722705
0.00751912
0.00782719
0.00813778
0.0084113
0.00860022
0.00864948
0.00846969
0.00781085
0.00591226
0.00128917
0.00104987
0.00152742
0.0019698
0.0023775
0.00265816
0.00258264
0.000839224
0.000739498
0.000659648
0.000595431
0.000543266
0.000500415
0.000464923
0.000435535
0.00041175
0.000444498
0.000513418
0.000886865
0.000476797
0.00221393
0.0067361
0.00470147
0.00618383
0.00670836
0.00690636
0.00705238
0.00723151
0.0074964
0.00783063
0.00818346
0.00849648
0.00870749
0.00874341
0.00853849
0.00779976
0.0053797
0.00151903
0.00189707
0.0024633
0.00301853
0.00346126
0.0037263
0.00347043
0.000945678
0.000859148
0.000797603
0.000750742
0.00071072
0.000673913
0.000638497
0.000601343
0.000558348
0.000524925
0.000543572
0.00106023
0.000528371
0.00254334
0.00857293
0.00521201
0.0060032
0.00666454
0.00673868
0.00672373
0.00685581
0.00709722
0.00745081
0.00785223
0.00822286
0.00847337
0.00854598
0.0084319
0.00809639
0.00734777
0.00607427
0.00563485
0.00549595
0.00544985
0.00541327
0.00533639
0.00509514
0.00425188
0.00385057
0.00361588
0.00343363
0.00324383
0.0029754
0.00262035
0.00219834
0.00173947
0.00129047
0.000957162
0.00101881
0.000700292
0.000648368
0.000772433
0.000865785
0.00289062
0.0105607
0.00714674
0.0061192
0.0065943
0.00674404
0.0066844
0.00677225
0.00696117
0.00728478
0.00770873
0.00812285
0.00839834
0.00845186
0.00828853
0.00799091
0.00765391
0.00732953
0.00714216
0.0069816
0.00678581
0.00655954
0.00630764
0.00600407
0.00558733
0.00522666
0.00491645
0.00462779
0.00434234
0.00404046
0.00366688
0.00320711
0.00266541
0.00207759
0.00156684
0.00115905
0.000937715
0.000834865
0.00120333
0.000909668
0.00319914
0.011913
0.00985468
0.00788429
0.00754252
0.00730504
0.00702519
0.00690531
0.00701607
0.00735508
0.00783477
0.00829792
0.00857976
0.00858373
0.00833462
0.00798735
0.00775161
0.00770311
0.00769276
0.00755171
0.00726598
0.00689364
0.0064753
0.00603022
0.00558186
0.00517955
0.00482457
0.00450435
0.00421651
0.00396576
0.00375093
0.00345698
0.00304328
0.00253759
0.00206851
0.00163691
0.00137094
0.00131279
0.00134543
0.00104714
0.00325224
0.0104123
0.00939217
0.0087127
0.00804518
0.00736338
0.00692658
0.00685045
0.00712779
0.00766249
0.00828511
0.00878861
0.00900197
0.00886391
0.00846378
0.00804767
0.00787266
0.00790096
0.00778508
0.00743334
0.00692594
0.00634479
0.00575405
0.00520793
0.00474306
0.00436475
0.00405575
0.003805
0.00361217
0.00348138
0.00341536
0.00338395
0.00320928
0.00289414
0.00263823
0.00254997
0.00272798
0.00320605
0.00408276
0.0015684
0.00315995
0.00372616
0.00410976
0.00419928
0.00440248
0.00485867
0.00558712
0.00654063
0.00759615
0.00858184
0.00931387
0.00963592
0.00949464
0.00899393
0.00839711
0.0080337
0.00779907
0.00752682
0.00707628
0.00645467
0.00575517
0.00507193
0.00447697
0.00400173
0.00363785
0.00335726
0.00313421
0.0029532
0.00280456
0.00268044
0.00257417
0.00248318
0.00241716
0.00237788
0.00237985
0.00241042
0.00240412
0.00230484
0.00213608
0.00145487
0.00146839
0.00368407
0.00663578
0.00857984
0.0098783
0.0106881
0.011045
0.011017
0.0106811
0.0101205
0.00931602
0.00846802
0.00780191
0.00732504
0.00683687
0.0062409
0.0055678
0.00489217
0.0042723
0.00375251
0.00335696
0.00306638
0.00285103
0.00268715
0.00256037
0.00246351
0.00239376
0.00235143
0.00233937
0.00235685
0.00239322
0.00244569
0.0025084
0.00256233
0.00258421
0.00258087
0.00228336
0.00120789
0.00219962
0.00670648
0.00931238
0.0100029
0.0102341
0.0101165
0.00967404
0.00902772
0.00829124
0.00756768
0.00688586
0.00629957
0.00579928
0.00529675
0.00476408
0.00424603
0.00378112
0.00338697
0.00306469
0.00280487
0.00260599
0.00245652
0.00234606
0.00226913
0.00222314
0.00220561
0.00221212
0.00223767
0.00229152
0.0023686
0.00246458
0.00257231
0.00267818
0.00276927
0.0028455
0.0028377
0.00195643
0.00124842
0.00196675
0.00208548
0.00217125
0.00233934
0.00224815
0.00216194
0.0020937
0.00199528
0.00186182
0.00170124
0.00152178
0.00133876
0.00117371
0.00104071
0.000940595
0.00086693
0.000812397
0.000771536
0.000741183
0.000719843
0.000706762
0.00070158
0.000702224
0.000708057
0.000718809
0.000734417
0.000754996
0.000780885
0.000812807
0.000851799
0.000897126
0.000949314
0.00100861
0.00107526
0.00114883
0.00123406
0.00125518
0.00114551
0.00106416
0.00119967
)
;

boundaryField
{
    floor
    {
        type            nutkWallFunction;
        Cmu             0.09;
        kappa           0.41;
        E               9.8;
        value           nonuniform List<scalar> 
29
(
0.00014782
6.07163e-05
7.38964e-05
8.31246e-05
8.27369e-05
7.98194e-05
7.59492e-05
7.10181e-05
6.60915e-05
6.15889e-05
5.75649e-05
5.39797e-05
5.0777e-05
4.7916e-05
4.53355e-05
4.29503e-05
4.06488e-05
3.82807e-05
3.70266e-05
3.35394e-05
3.35394e-05
4.74336e-05
5.67443e-05
6.33311e-05
0.00014782
6.07163e-05
6.50151e-05
0.000126566
0.000180254
)
;
    }
    ceiling
    {
        type            nutkWallFunction;
        Cmu             0.09;
        kappa           0.41;
        E               9.8;
        value           nonuniform List<scalar> 
43
(
0.00022958
0.000242475
0.000251745
0.00026994
0.000260209
0.000250938
0.000243566
0.000232878
0.000218288
0.000200578
0.000180565
0.000159884
0.000140963
0.000125496
0.000113705
0.000104937
9.83904e-05
9.34511e-05
8.97619e-05
8.71575e-05
8.55565e-05
8.49212e-05
8.50001e-05
8.57149e-05
8.70308e-05
8.89368e-05
9.14427e-05
9.45835e-05
9.84395e-05
0.000103126
0.000108542
0.000114738
0.000121731
0.000129537
0.000138087
0.000147918
0.000150342
0.000137703
0.000128241
0.000143964
0.00035673
0.000415043
0.000254599
)
;
    }
    sWall
    {
        type            nutkWallFunction;
        Cmu             0.09;
        kappa           0.41;
        E               9.8;
        value           uniform 0.000229646;
    }
    nWall
    {
        type            nutkWallFunction;
        Cmu             0.09;
        kappa           0.41;
        E               9.8;
        value           nonuniform List<scalar> 6(0.000104802 0.000110037 0.000126256 0.000144921 0.000149579 0.000143974);
    }
    sideWalls
    {
        type            empty;
    }
    glass1
    {
        type            nutkWallFunction;
        Cmu             0.09;
        kappa           0.41;
        E               9.8;
        value           nonuniform List<scalar> 9(0.000136533 0.000183717 0.000221604 0.000257 0.000292309 0.000329014 0.000361241 0.000366766 0.000357196);
    }
    glass2
    {
        type            nutkWallFunction;
        Cmu             0.09;
        kappa           0.41;
        E               9.8;
        value           nonuniform List<scalar> 2(0.000185886 0.000173126);
    }
    sun
    {
        type            nutkWallFunction;
        Cmu             0.09;
        kappa           0.41;
        E               9.8;
        value           nonuniform List<scalar> 
14
(
0.000136407
0.000148764
0.000151379
0.000158477
0.0001651
0.000171342
0.000177525
0.000183225
0.000187062
0.000188403
0.000186683
0.000181537
0.000172835
0.000161073
)
;
    }
    heatsource1
    {
        type            nutkWallFunction;
        Cmu             0.09;
        kappa           0.41;
        E               9.8;
        value           nonuniform List<scalar> 3(7.83676e-05 9.35596e-05 0.000104799);
    }
    heatsource2
    {
        type            nutkWallFunction;
        Cmu             0.09;
        kappa           0.41;
        E               9.8;
        value           nonuniform List<scalar> 4(0.000151524 8.65707e-05 8.65707e-05 0.000154219);
    }
    Table_master
    {
        type            nutkWallFunction;
        Cmu             0.09;
        kappa           0.41;
        E               9.8;
        value           nonuniform List<scalar> 9(0.000101617 8.95584e-05 7.97643e-05 7.17843e-05 6.52251e-05 5.97793e-05 5.5225e-05 5.14212e-05 4.8319e-05);
    }
    Table_slave
    {
        type            nutkWallFunction;
        Cmu             0.09;
        kappa           0.41;
        E               9.8;
        value           nonuniform List<scalar> 9(0.000114306 0.000104006 9.66062e-05 9.0927e-05 8.60435e-05 8.15233e-05 7.71459e-05 7.25221e-05 6.71278e-05);
    }
    inlet
    {
        type            calculated;
        value           uniform 0.000100623;
    }
    outlet
    {
        type            calculated;
        value           nonuniform List<scalar> 2(0.00196675 0.00208548);
    }
}


// ************************************************************************* //
