// -*- C++ -*-
// File generated by PyFoam - sorry for the ugliness

FoamFile
{
 version 2.0;
 format ascii;
 class volVectorField;
 location "1000";
 object U;
}

dimensions [ 0 1 -1 0 0 0 0 ];

internalField nonuniform List<vector> 459
(
  (0.0340516 0.0882324 0)
  (-0.171693 0.0262939 0)
  (-0.19655 0.0177271 0)
  (-0.227107 0.011772 0)
  (-0.248568 0.00522652 0)
  (-0.259931 -0.00163501 0)
  (-0.259714 -0.00881213 0)
  (-0.247304 -0.0162584 0)
  (-0.223646 -0.0232008 0)
  (-0.190848 -0.0285277 0)
  (-0.152415 -0.0313946 0)
  (-0.112182 -0.0314943 0)
  (-0.0737734 -0.029136 0)
  (-0.0422852 -0.025703 0)
  (-0.0331289 -0.0230312 0)
  (-0.0026121 0.00889837 0)
  (-0.0291355 -0.0193808 0)
  (-0.00418242 -0.0292636 0)
  (0.0202789 -0.0217826 0)
  (0.0371047 -0.0146612 0)
  (0.0499956 -0.00934824 0)
  (0.0577845 -0.00551868 0)
  (0.0616988 -0.00351728 0)
  (0.0634332 -0.00266787 0)
  (0.0642981 -0.00226891 0)
  (0.0648356 -0.00201535 0)
  (0.0651276 -0.00181326 0)
  (0.0651144 -0.0015767 0)
  (0.0645997 -0.00113545 0)
  (0.0630347 -0.00011409 0)
  (0.0592401 0.00200586 0)
  (0.0519548 0.00416639 0)
  (0.0460939 0.00584483 0)
  (-0.0160925 0.0226608 0)
  (0.210939 0.180386 0)
  (-0.159076 0.0694268 0)
  (-0.157399 0.0527413 0)
  (-0.188759 0.0401563 0)
  (-0.209875 0.0259895 0)
  (-0.22138 0.010318 0)
  (-0.221746 -0.00692964 0)
  (-0.210369 -0.0248092 0)
  (-0.188773 -0.040835 0)
  (-0.159379 -0.0525678 0)
  (-0.1257 -0.0584473 0)
  (-0.091216 -0.0582093 0)
  (-0.0590661 -0.0524473 0)
  (-0.0326169 -0.042719 0)
  (-0.0161288 -0.0310781 0)
  (-0.00264815 -0.0132593 0)
  (-0.00287281 0.0164797 0)
  (0.074996 0.0369104 0)
  (0.0298688 -0.0195738 0)
  (0.0374674 -0.0332802 0)
  (0.0492507 -0.028876 0)
  (0.0583558 -0.0201503 0)
  (0.0645709 -0.0120387 0)
  (0.0671353 -0.00501383 0)
  (0.0675442 -0.00109586 0)
  (0.0674427 0.000547955 0)
  (0.0675173 0.00128111 0)
  (0.0676894 0.00172166 0)
  (0.0678126 0.00208204 0)
  (0.0678431 0.00253633 0)
  (0.0677313 0.00342028 0)
  (0.0669435 0.00563644 0)
  (0.0630186 0.0118542 0)
  (0.0530994 0.0168902 0)
  (0.0501573 0.0200327 0)
  (-0.0590477 0.0489142 0)
  (0.3725 0.269492 0)
  (-0.174387 0.110155 0)
  (-0.117881 0.0849636 0)
  (-0.14782 0.0627038 0)
  (-0.166311 0.0394768 0)
  (-0.176524 0.0141474 0)
  (-0.175908 -0.0136549 0)
  (-0.163745 -0.0419234 0)
  (-0.142742 -0.0662786 0)
  (-0.115899 -0.0830856 0)
  (-0.0867568 -0.0904813 0)
  (-0.0580045 -0.0888076 0)
  (-0.031676 -0.0791902 0)
  (-0.00979642 -0.0635414 0)
  (0.00661993 -0.0424947 0)
  (0.0178492 -0.0171745 0)
  (0.0238113 0.0190749 0)
  (0.121623 -0.0348966 0)
  (0.0785722 -0.0428362 0)
  (0.0721239 -0.0411624 0)
  (0.0737592 -0.0340256 0)
  (0.0749849 -0.0247968 0)
  (0.0758166 -0.0168333 0)
  (0.0742334 -0.0134581 0)
  (0.0697762 -0.00944145 0)
  (0.0666651 -0.00726436 0)
  (0.0652956 -0.00602445 0)
  (0.0647283 -0.00523678 0)
  (0.0644538 -0.00469331 0)
  (0.0644787 -0.00419836 0)
  (0.0652651 -0.00338542 0)
  (0.0679967 -0.000257097 0)
  (0.0655698 0.0170733 0)
  (0.0511691 0.0288627 0)
  (0.0571647 0.0361238 0)
  (-0.0976168 0.075271 0)
  (0.517551 0.340975 0)
  (-0.207475 0.146217 0)
  (-0.0767803 0.112113 0)
  (-0.104222 0.0815009 0)
  (-0.11704 0.0513798 0)
  (-0.123037 0.0177581 0)
  (-0.117751 -0.0205401 0)
  (-0.102564 -0.0591224 0)
  (-0.0818565 -0.0904485 0)
  (-0.0586924 -0.110562 0)
  (-0.0361132 -0.118056 0)
  (-0.0152478 -0.11455 0)
  (0.00353896 -0.101386 0)
  (0.0191764 -0.0815084 0)
  (0.0327598 -0.0572352 0)
  (0.047546 -0.0300282 0)
  (0.0698132 2.22802e-06 0)
  (0.101542 0.0155045 0)
  (0.107116 -0.0272331 0)
  (0.0915396 -0.0370559 0)
  (0.082204 -0.0347008 0)
  (0.0774857 -0.0293581 0)
  (0.0741248 -0.0222683 0)
  (0.0722396 -0.01359 0)
  (0.0738521 -0.00798089 0)
  (0.0784615 -0.0061538 0)
  (0.0822857 -0.00511683 0)
  (0.084797 -0.00431946 0)
  (0.0862436 -0.00333573 0)
  (0.0860066 -0.00188736 0)
  (0.0830122 0.000241884 0)
  (0.0759905 0.00334692 0)
  (0.0619509 0.00799829 0)
  (0.0500909 0.0285346 0)
  (0.0372469 0.0450334 0)
  (0.0611247 0.0569996 0)
  (-0.145482 0.0972761 0)
  (0.64187 0.396261 0)
  (-0.248054 0.175627 0)
  (-0.0370175 0.127225 0)
  (-0.0584944 0.0916859 0)
  (-0.0628091 0.0574128 0)
  (-0.0605097 0.0171453 0)
  (-0.0437453 -0.0313538 0)
  (-0.0245139 -0.077414 0)
  (-0.00596441 -0.111484 0)
  (0.0105678 -0.131219 0)
  (0.0231721 -0.135989 0)
  (0.0331174 -0.129588 0)
  (0.0407919 -0.114444 0)
  (0.0470915 -0.0932758 0)
  (0.0532113 -0.0688144 0)
  (0.0609862 -0.0443084 0)
  (0.0730378 -0.0256953 0)
  (0.0834981 -0.0243592 0)
  (0.0843328 -0.0326611 0)
  (0.0772655 -0.0327936 0)
  (0.0685956 -0.0287982 0)
  (0.0617893 -0.0239413 0)
  (0.056832 -0.0185222 0)
  (0.0540233 -0.0125375 0)
  (0.0539047 -0.0068715 0)
  (0.0561641 -0.00423715 0)
  (0.058743 -0.00327181 0)
  (0.0612358 -0.00243393 0)
  (0.0635255 -0.000695975 0)
  (0.0651929 0.002477 0)
  (0.0649833 0.00715964 0)
  (0.0623031 0.0134946 0)
  (0.0564195 0.022105 0)
  (0.0492887 0.0378391 0)
  (0.0375969 0.056529 0)
  (0.0684715 0.0770837 0)
  (-0.0412208 0.108717 0)
  (0.0483232 0.0236884 0)
  (-0.0688686 -0.0370074 0)
  (-0.287176 -0.0608076 0)
  (0.73129 0.442131 0)
  (-0.287311 0.195015 0)
  (-0.0070987 0.121596 0)
  (-0.0100621 0.0897368 0)
  (-0.00141808 0.0542774 0)
  (0.0188373 0.00489821 0)
  (0.0482876 -0.0509515 0)
  (0.0677981 -0.0951784 0)
  (0.0799197 -0.124708 0)
  (0.085347 -0.139604 0)
  (0.0854343 -0.141246 0)
  (0.0819952 -0.132287 0)
  (0.0765353 -0.115586 0)
  (0.0706439 -0.0940942 0)
  (0.0657425 -0.0705929 0)
  (0.0630614 -0.0481893 0)
  (0.0632872 -0.0309607 0)
  (0.063352 -0.0237925 0)
  (0.0594277 -0.0234546 0)
  (0.0517175 -0.0230644 0)
  (0.0432162 -0.0207909 0)
  (0.0362608 -0.0176883 0)
  (0.03133 -0.0142475 0)
  (0.0286812 -0.0106117 0)
  (0.028421 -0.00757124 0)
  (0.0301341 -0.00653168 0)
  (0.0327904 -0.00648338 0)
  (0.0359992 -0.00611284 0)
  (0.0395796 -0.00436876 0)
  (0.0433407 -0.000358065 0)
  (0.046634 0.00611795 0)
  (0.0484142 0.0146749 0)
  (0.0489249 0.0254526 0)
  (0.0497228 0.040124 0)
  (0.0476658 0.0583391 0)
  (0.0767413 0.0826077 0)
  (0.0474217 0.101116 0)
  (0.0982092 0.067179 0)
  (0.12268 0.0444333 0)
  (-0.137692 -0.00900332 0)
  (0.788088 0.48408 0)
  (-0.305161 0.179524 0)
  (0.0239341 0.0654202 0)
  (0.0575133 0.0553374 0)
  (0.0835052 0.0294293 0)
  (0.127316 -0.0249179 0)
  (0.155721 -0.0735615 0)
  (0.169271 -0.108057 0)
  (0.170015 -0.128294 0)
  (0.160654 -0.135694 0)
  (0.14436 -0.132133 0)
  (0.124253 -0.120101 0)
  (0.103037 -0.102425 0)
  (0.0829632 -0.08179 0)
  (0.0655978 -0.0603889 0)
  (0.0519292 -0.0407372 0)
  (0.0421673 -0.0258099 0)
  (0.0346935 -0.0179432 0)
  (0.0272538 -0.0155435 0)
  (0.0192712 -0.0147889 0)
  (0.0118245 -0.0136372 0)
  (0.00593703 -0.0121745 0)
  (0.00190772 -0.0106649 0)
  (-0.00011636 -0.00925003 0)
  (-0.000150425 -0.00844038 0)
  (0.00136003 -0.00877927 0)
  (0.00375525 -0.00959689 0)
  (0.00680106 -0.00994632 0)
  (0.0105608 -0.00890631 0)
  (0.0152058 -0.00540852 0)
  (0.0218335 0.00158104 0)
  (0.0284028 0.0109946 0)
  (0.0347319 0.0218791 0)
  (0.0427983 0.0347951 0)
  (0.0509254 0.0494292 0)
  (0.0773031 0.0689883 0)
  (0.0902702 0.0758584 0)
  (0.127389 0.049172 0)
  (0.169599 0.0412509 0)
  (-0.0305882 0.0956634 0)
  (0.896284 0.483665 0)
  (-0.0566191 0.158029 0)
  (0.11959 -0.0231207 0)
  (0.207437 -0.059197 0)
  (0.253151 -0.072753 0)
  (0.278094 -0.0897304 0)
  (0.286767 -0.10536 0)
  (0.27865 -0.115199 0)
  (0.255982 -0.118105 0)
  (0.223073 -0.114313 0)
  (0.184673 -0.104694 0)
  (0.144905 -0.0905283 0)
  (0.107085 -0.0737167 0)
  (0.0735462 -0.0560792 0)
  (0.0454606 -0.0387967 0)
  (0.0237525 -0.0237534 0)
  (0.00845433 -0.013308 0)
  (-0.00202788 -0.00831355 0)
  (-0.00969633 -0.00726984 0)
  (-0.0162088 -0.00746909 0)
  (-0.021679 -0.00765905 0)
  (-0.0259052 -0.00775563 0)
  (-0.028854 -0.00789705 0)
  (-0.0305275 -0.00823078 0)
  (-0.0310525 -0.00899613 0)
  (-0.0308059 -0.0102938 0)
  (-0.0301867 -0.0117745 0)
  (-0.0293009 -0.0129428 0)
  (-0.0279628 -0.0132771 0)
  (-0.0257175 -0.0121637 0)
  (-0.0214964 -0.00883067 0)
  (-0.0120055 -0.00258801 0)
  (-0.00187332 0.00561346 0)
  (0.0101021 0.0140607 0)
  (0.0225192 0.0209018 0)
  (0.0448381 0.0289538 0)
  (0.0643681 0.0220643 0)
  (0.0826225 -0.00368924 0)
  (0.142895 0.0521971 0)
  (-0.479737 0.219852 0)
  (1.04888 0.427595 0)
  (0.496996 0.27903 0)
  (0.515929 0.173461 0)
  (0.550784 0.0955258 0)
  (0.530601 0.0415673 0)
  (0.482562 -0.00139478 0)
  (0.427057 -0.0328691 0)
  (0.366388 -0.0520123 0)
  (0.301389 -0.0600976 0)
  (0.235482 -0.0596579 0)
  (0.172792 -0.0534206 0)
  (0.116241 -0.0434056 0)
  (0.0681307 -0.0318701 0)
  (0.0289341 -0.0205476 0)
  (-0.00226595 -0.01031 0)
  (-0.022797 -0.00375407 0)
  (-0.0343914 -0.00103187 0)
  (-0.041383 -0.000603355 0)
  (-0.046259 -0.00138174 0)
  (-0.0504814 -0.00247592 0)
  (-0.0542068 -0.00354467 0)
  (-0.057401 -0.00458718 0)
  (-0.0600949 -0.0056742 0)
  (-0.062386 -0.00686551 0)
  (-0.0644962 -0.00821201 0)
  (-0.0667823 -0.00964682 0)
  (-0.0696137 -0.010893 0)
  (-0.0732923 -0.0115476 0)
  (-0.0781211 -0.0111081 0)
  (-0.0845206 -0.00892852 0)
  (-0.0930675 -0.0042182 0)
  (-0.103849 0.00364778 0)
  (-0.115191 0.0143512 0)
  (-0.131232 0.0278546 0)
  (-0.156578 0.0438328 0)
  (-0.19334 0.0606822 0)
  (-0.245857 0.0739162 0)
  (-0.307792 0.0812988 0)
  (-0.384801 0.0838855 0)
  (-0.658516 0.0773897 0)
  (-0.181686 -0.0192174 0)
  (0.100843 -0.0338107 0)
  (0.177227 -0.0542504 0)
  (0.164164 -0.0472192 0)
  (0.144912 -0.0342783 0)
  (0.120785 -0.0223584 0)
  (0.088534 -0.0120421 0)
  (0.0524989 -0.00396519 0)
  (0.0175094 0.001611 0)
  (-0.0153904 0.00530757 0)
  (-0.0386749 0.00655593 0)
  (-0.0554876 0.00655129 0)
  (-0.065941 0.00540416 0)
  (-0.0713751 0.00319206 0)
  (-0.0744316 0.000674685 0)
  (-0.0765202 -0.00187658 0)
  (-0.0784515 -0.0044429 0)
  (-0.080524 -0.00683958 0)
  (-0.0828889 -0.00890377 0)
  (-0.0854898 -0.0104442 0)
  (-0.088185 -0.011594 0)
  (-0.0910612 -0.0124075 0)
  (-0.0943069 -0.0129103 0)
  (-0.0981196 -0.0130469 0)
  (-0.102622 -0.0126135 0)
  (-0.107793 -0.0112559 0)
  (-0.113414 -0.00849792 0)
  (-0.119038 -0.00379017 0)
  (-0.124036 0.00327907 0)
  (-0.127871 0.0129003 0)
  (-0.130964 0.0260134 0)
  (-0.133569 0.0431065 0)
  (-0.136581 0.0634486 0)
  (-0.140184 0.0837525 0)
  (-0.140423 0.0957595 0)
  (-0.117626 0.0851761 0)
  (-0.035337 0.0279529 0)
  (-0.210322 -0.188455 0)
  (0.032288 0.199776 0)
  (0.0129807 0.0653439 0)
  (-0.0329165 0.013052 0)
  (-0.0560271 0.0119943 0)
  (-0.0740084 0.017999 0)
  (-0.0872536 0.0226205 0)
  (-0.0959275 0.0264211 0)
  (-0.10254 0.029606 0)
  (-0.107186 0.0315415 0)
  (-0.110154 0.0319561 0)
  (-0.111222 0.031371 0)
  (-0.110974 0.0310298 0)
  (-0.109653 0.0311056 0)
  (-0.107878 0.0316909 0)
  (-0.106219 0.0330393 0)
  (-0.104886 0.0350476 0)
  (-0.103978 0.0373194 0)
  (-0.103512 0.0393661 0)
  (-0.103471 0.040677 0)
  (-0.103767 0.0407194 0)
  (-0.10442 0.0399547 0)
  (-0.10544 0.0387267 0)
  (-0.106839 0.0371062 0)
  (-0.10861 0.035161 0)
  (-0.110698 0.0329895 0)
  (-0.112979 0.0306952 0)
  (-0.115225 0.0283369 0)
  (-0.11696 0.026108 0)
  (-0.11735 0.0253706 0)
  (-0.115166 0.0274408 0)
  (-0.108936 0.0334075 0)
  (-0.0974907 0.0442179 0)
  (-0.0810559 0.0596393 0)
  (-0.0611647 0.075381 0)
  (-0.0411852 0.081878 0)
  (0.042578 0.0295352 0)
  (0.150513 -0.0616257 0)
  (-0.0520154 -0.0628997 0)
  (-0.0966446 -0.349075 0)
  (-0.449292 -0.138759 0)
  (-0.33536 0.045561 0)
  (-0.291748 -0.0453539 0)
  (-0.250403 -0.0529762 0)
  (-0.238743 -0.0459911 0)
  (-0.230562 -0.0391345 0)
  (-0.221105 -0.0348365 0)
  (-0.209274 -0.0327566 0)
  (-0.195352 -0.0330385 0)
  (-0.180332 -0.0362494 0)
  (-0.165664 -0.0423438 0)
  (-0.152595 -0.0504851 0)
  (-0.141742 -0.0593524 0)
  (-0.133182 -0.0684648 0)
  (-0.12675 -0.0776443 0)
  (-0.122058 -0.0865832 0)
  (-0.118666 -0.094949 0)
  (-0.11624 -0.102358 0)
  (-0.114559 -0.108342 0)
  (-0.113517 -0.112469 0)
  (-0.113124 -0.114442 0)
  (-0.113364 -0.114592 0)
  (-0.114097 -0.113313 0)
  (-0.115161 -0.110725 0)
  (-0.116387 -0.106892 0)
  (-0.117551 -0.101805 0)
  (-0.118344 -0.095348 0)
  (-0.118362 -0.0872612 0)
  (-0.11709 -0.0773814 0)
  (-0.113576 -0.0664452 0)
  (-0.105945 -0.0544228 0)
  (-0.0915611 -0.0410513 0)
  (-0.0683301 -0.0256544 0)
  (-0.036987 -0.00779272 0)
  (0.00934556 0.0119958 0)
  (0.0498193 0.00238717 0)
  (0.109418 -0.0529339 0)
  (0.119697 -0.0942498 0)
  (-0.518086 0.0070713 0)
)
;

boundaryField
{
  floor
  {
    type noSlip;
  }
  ceiling
  {
    type noSlip;
  }
  sWall
  {
    type noSlip;
  }
  nWall
  {
    type noSlip;
  }
  sideWalls
  {
    type empty;
  }
  glass1
  {
    type noSlip;
  }
  glass2
  {
    type noSlip;
  }
  sun
  {
    type noSlip;
  }
  heatsource1
  {
    type noSlip;
  }
  heatsource2
  {
    type noSlip;
  }
  Table_master
  {
    type noSlip;
  }
  Table_slave
  {
    type noSlip;
  }
  inlet
  {
    type fixedValue;
    value uniform (0.277164 -0.114805 0);
  }
  outlet
  {
    type zeroGradient;
  }
} 	// ************************************************************************* //

