/*--------------------------------*- C++ -*----------------------------------*\
  =========                 |
  \\      /  F ield         | OpenFOAM: The Open Source CFD Toolbox
   \\    /   O peration     | Website:  https://openfoam.org
    \\  /    A nd           | Version:  6
     \\/     M anipulation  |
\*---------------------------------------------------------------------------*/
FoamFile
{
    version     2.0;
    format      ascii;
    class       volScalarField;
    location    "40";
    object      alphat;
}
// * * * * * * * * * * * * * * * * * * * * * * * * * * * * * * * * * * * * * //

dimensions      [1 -1 -1 0 0 0 0];

internalField   nonuniform List<scalar> 
459
(
0.00158495
0.00175498
0.00176855
0.00175373
0.00167553
0.00157699
0.00149693
0.00143667
0.0013931
0.00135833
0.00132776
0.00129813
0.00126798
0.00123838
0.00120815
0.000673206
0.000864956
0.000955815
0.000993556
0.00100779
0.000981401
0.000908422
0.000830694
0.000756751
0.000685187
0.000617479
0.00055692
0.000507518
0.000472019
0.000451053
0.000446172
0.000465018
0.00053167
0.000528328
0.00214029
0.00712446
0.00831403
0.00927985
0.00935717
0.00885236
0.00816806
0.00759587
0.00720107
0.00690035
0.00659529
0.00616836
0.00546145
0.00430576
0.002669
0.00123385
0.00105743
0.000999788
0.00273929
0.0044373
0.0054557
0.00550095
0.00462025
0.00312927
0.00252874
0.00206684
0.00170939
0.0014376
0.00124171
0.00111128
0.00103237
0.00099234
0.00102261
0.00118812
0.00168464
0.000711366
0.00239525
0.00821935
0.00911055
0.0114365
0.0121324
0.0119045
0.0112169
0.0104414
0.00977929
0.00931054
0.00900774
0.00869057
0.00804275
0.00680051
0.00497081
0.00302654
0.00139969
0.00134038
0.00578069
0.00786455
0.00836012
0.00759211
0.00514877
0.00113921
0.000919863
0.000778139
0.00067913
0.000604573
0.00054679
0.000503227
0.000473875
0.00046667
0.000710012
0.00122966
0.00222836
0.000851821
0.00240308
0.00410438
0.0050006
0.00691895
0.00911389
0.0106231
0.0113067
0.0113943
0.0111404
0.0106266
0.0101147
0.00988728
0.00961367
0.00880787
0.00720357
0.00501239
0.00287286
0.00160016
0.0065908
0.00891604
0.00990664
0.00975557
0.00840453
0.00497749
0.00117428
0.00110767
0.0011083
0.00112207
0.00114089
0.00115798
0.00116382
0.00114564
0.00110614
0.00125851
0.00160034
0.00256504
0.00101143
0.00363233
0.0042476
0.00430706
0.00454545
0.00548935
0.00699997
0.00859224
0.00986035
0.0105885
0.0107643
0.0106626
0.0105961
0.0105476
0.0103436
0.00970434
0.00879643
0.00807691
0.00793783
0.00953636
0.0104551
0.0107243
0.0104124
0.0095391
0.00814918
0.00668859
0.00646251
0.00638826
0.00636734
0.00635015
0.00629326
0.00616115
0.00591132
0.00531472
0.00455698
0.00392271
0.00351592
0.00218434
0.00118267
0.00115006
0.00115293
0.00442009
0.00555635
0.00544583
0.00511296
0.00523213
0.00602172
0.00729172
0.00865241
0.00973332
0.0103654
0.0106255
0.0107241
0.010919
0.0108822
0.0104843
0.0098185
0.00931298
0.00928982
0.00978072
0.0102465
0.0104376
0.0102525
0.00975049
0.00910775
0.00857292
0.00836768
0.0083121
0.00827704
0.00818945
0.00802802
0.00780958
0.00756276
0.00725943
0.00670628
0.00598158
0.00514716
0.00402212
0.00327292
0.00320505
0.00149041
0.00472747
0.00671476
0.00684188
0.00579938
0.00554559
0.00595994
0.00695017
0.00817434
0.00925585
0.00998034
0.0103602
0.0105634
0.0107589
0.0109226
0.0104969
0.0095882
0.00867188
0.00826626
0.00848072
0.00901935
0.00942178
0.00939864
0.00902806
0.0085556
0.00824421
0.00819631
0.00828183
0.008317
0.00822424
0.0080293
0.00780287
0.00761872
0.00752731
0.00746781
0.00711127
0.00651716
0.00578249
0.0052108
0.00458385
0.00178877
0.00507389
0.0067535
0.0074868
0.00633156
0.00600132
0.0062826
0.00712854
0.00819719
0.00916151
0.00981869
0.0101598
0.0103163
0.0104465
0.0105704
0.0102678
0.00917581
0.00773477
0.00674476
0.00669817
0.00741978
0.00815955
0.00826224
0.00784231
0.00731017
0.00708368
0.00727958
0.00761131
0.00777195
0.00770002
0.00749641
0.00728912
0.00717878
0.00723411
0.00747347
0.00767182
0.00760564
0.00753512
0.00713066
0.00696449
0.00215231
0.00552998
0.00648665
0.00921891
0.00677989
0.0066628
0.00715894
0.00770843
0.00858638
0.00941275
0.00991435
0.0101208
0.0101375
0.0101017
0.010061
0.00979195
0.0088301
0.00712306
0.00547544
0.00497225
0.00578781
0.00698856
0.00724734
0.00664084
0.00593067
0.00579799
0.0063321
0.00695806
0.00720427
0.00707083
0.00675245
0.00641468
0.00613115
0.00589749
0.00566479
0.00542506
0.00510589
0.00461129
0.00400781
0.00351152
0.00201123
0.0124328
0.00706544
0.00688156
0.00821394
0.00861607
0.00921593
0.00980286
0.0101072
0.0100734
0.00985133
0.00955784
0.00926227
0.00891644
0.00810345
0.00660636
0.00470513
0.00360544
0.00425643
0.00591398
0.00649829
0.00559527
0.0046766
0.00467555
0.00556694
0.00648896
0.00677378
0.00657114
0.00618633
0.00581218
0.005517
0.0052982
0.00512806
0.00490406
0.00453669
0.00397921
0.00328011
0.00257085
0.00156996
0.0043899
0.00472371
0.00722252
0.00810686
0.00859368
0.00898323
0.00922795
0.00921669
0.00884226
0.00834583
0.00780595
0.00728488
0.00677933
0.00616788
0.00506296
0.00362316
0.00259132
0.00289195
0.00464022
0.00548557
0.00446784
0.00352487
0.00359764
0.00447561
0.00533553
0.00554069
0.00542432
0.00522251
0.0050499
0.00496114
0.00496
0.00499652
0.00499319
0.00486224
0.00455431
0.00409754
0.00326396
0.00159521
0.00222889
0.00253858
0.00281674
0.00207703
0.0021789
0.00231268
0.00238894
0.00239628
0.00235095
0.00219202
0.00206641
0.00194737
0.00183504
0.00173083
0.00163413
0.00153993
0.00144731
0.00134899
0.00125126
0.00119857
0.00127899
0.00131556
0.0012492
0.00118031
0.00118594
0.00122951
0.00127229
0.0013035
0.00131249
0.00132674
0.00136285
0.00142422
0.0015076
0.00160774
0.00171644
0.00182569
0.00187496
0.00181915
0.00166184
0.00151508
)
;

boundaryField
{
    floor
    {
        type            compressible::alphatWallFunction;
        Prt             0.85;
        value           nonuniform List<scalar> 
29
(
0.000171275
9.52084e-05
0.000123065
0.000136007
0.000141332
0.000143332
0.000139606
0.000129251
0.000118116
0.000107405
9.69197e-05
8.68791e-05
7.77904e-05
7.0294e-05
6.486e-05
6.16356e-05
6.08987e-05
6.38445e-05
7.40781e-05
7.35576e-05
7.35567e-05
0.000100871
0.000121242
0.000143926
0.000171273
9.52073e-05
0.000142191
0.000189333
0.000224346
)
;
    }
    ceiling
    {
        type            compressible::alphatWallFunction;
        Prt             0.85;
        value           nonuniform List<scalar> 
43
(
0.000306845
0.000346436
0.000381563
0.000287238
0.000300425
0.000317638
0.000327404
0.000328341
0.000322544
0.000302114
0.000285854
0.000270343
0.00025561
0.000241852
0.000228997
0.00021639
0.000203902
0.000190553
0.000177195
0.000170045
0.000181191
0.000186123
0.000177084
0.000167561
0.000168268
0.000174254
0.000180136
0.000184441
0.000185695
0.000187638
0.000192539
0.000200848
0.000212086
0.000225498
0.000239959
0.000254397
0.000260862
0.000253523
0.000232709
0.000213095
0.000709664
0.000820988
0.000574396
)
;
    }
    sWall
    {
        type            compressible::alphatWallFunction;
        Prt             0.85;
        value           uniform 0.000305716;
    }
    nWall
    {
        type            compressible::alphatWallFunction;
        Prt             0.85;
        value           nonuniform List<scalar> 6(0.000163307 0.000209448 0.000249181 0.000220074 0.00022345 0.000212713);
    }
    sideWalls
    {
        type            empty;
    }
    glass1
    {
        type            compressible::alphatWallFunction;
        Prt             0.85;
        value           nonuniform List<scalar> 9(0.000216842 0.000288885 0.000321425 0.00032261 0.000474741 0.000569405 0.000605783 0.000646517 0.000699813);
    }
    glass2
    {
        type            compressible::alphatWallFunction;
        Prt             0.85;
        value           nonuniform List<scalar> 2(0.000294315 0.000276186);
    }
    sun
    {
        type            compressible::alphatWallFunction;
        Prt             0.85;
        value           nonuniform List<scalar> 
14
(
0.000222335
0.000244916
0.000246708
0.00024476
0.000234412
0.000221294
0.000210572
0.00020246
0.000196569
0.000191851
0.000187689
0.000183642
0.000179511
0.000175442
)
;
    }
    heatsource1
    {
        type            compressible::alphatWallFunction;
        Prt             0.85;
        value           nonuniform List<scalar> 3(0.000168011 0.000163496 0.000163766);
    }
    heatsource2
    {
        type            compressible::alphatWallFunction;
        Prt             0.85;
        value           nonuniform List<scalar> 4(0.000175012 0.00015052 0.000150518 0.000197634);
    }
    Table_master
    {
        type            compressible::alphatWallFunction;
        Prt             0.85;
        value           nonuniform List<scalar> 9(0.000161894 0.000131085 0.000110725 9.62371e-05 8.51589e-05 7.64605e-05 6.98321e-05 6.53321e-05 6.42397e-05);
    }
    Table_slave
    {
        type            compressible::alphatWallFunction;
        Prt             0.85;
        value           nonuniform List<scalar> 9(0.000166773 0.000157531 0.000157631 0.000159554 0.000162176 0.000164551 0.000165367 0.000162856 0.000157365);
    }
    inlet
    {
        type            fixedValue;
        value           uniform 1.94e-05;
    }
    outlet
    {
        type            zeroGradient;
    }
}


// ************************************************************************* //
