/*--------------------------------*- C++ -*----------------------------------*\
  =========                 |
  \\      /  F ield         | OpenFOAM: The Open Source CFD Toolbox
   \\    /   O peration     | Website:  https://openfoam.org
    \\  /    A nd           | Version:  6
     \\/     M anipulation  |
\*---------------------------------------------------------------------------*/
FoamFile
{
    version     2.0;
    format      ascii;
    class       volScalarField;
    location    "40";
    object      epsilon;
}
// * * * * * * * * * * * * * * * * * * * * * * * * * * * * * * * * * * * * * //

dimensions      [0 2 -3 0 0 0 0];

internalField   nonuniform List<scalar> 
459
(
0.000890402
0.00120564
0.00123346
0.00120261
0.00104879
0.000874482
0.000748055
0.000661384
0.000603051
0.000558996
0.000522059
0.000487816
0.000454529
0.000423342
0.000393007
6.79749e-05
0.000144059
0.000194381
0.000218278
0.000227751
0.000210281
0.000166734
0.00012746
9.63296e-05
7.14751e-05
5.22935e-05
3.83642e-05
2.90441e-05
2.3384e-05
2.04253e-05
1.97931e-05
2.24401e-05
3.35661e-05
3.29234e-05
0.00219796
0.0025356
0.00223759
0.00248618
0.00213449
0.00151764
0.00101263
0.000689217
0.000509234
0.000401092
0.000336322
0.000298484
0.000279842
0.000278717
0.000307294
0.000418412
0.000263192
0.000222372
0.000178187
0.000145872
0.000142156
0.00014455
0.00014394
0.000136552
0.000106034
8.02202e-05
5.91647e-05
4.3056e-05
3.15501e-05
2.38777e-05
1.9186e-05
1.69764e-05
1.82208e-05
2.75228e-05
9.4776e-05
8.03334e-05
0.00308973
0.0042617
0.00469512
0.0064383
0.00581733
0.00419207
0.0028305
0.00180971
0.00107697
0.000677424
0.000466614
0.000352856
0.000295482
0.00027656
0.000295051
0.000371799
0.000610598
0.000535903
0.000225942
0.000168982
0.000156219
0.000155642
0.000170358
0.000328888
0.000173104
0.000104763
6.96262e-05
4.91078e-05
3.63265e-05
2.83221e-05
2.36612e-05
2.26233e-05
2.95129e-05
4.81363e-05
0.000193733
0.000137899
0.00313116
0.00424196
0.004654
0.00576547
0.00660605
0.00643278
0.00549772
0.00419282
0.00266285
0.00146331
0.000816733
0.000505398
0.000356234
0.000291416
0.000282858
0.000337589
0.000514336
0.000911647
0.000355978
0.000209181
0.000170254
0.000153809
0.000151082
0.000178592
0.000360384
0.000302478
0.000303106
0.000314629
0.000330812
0.000345982
0.000351333
0.000335215
0.000301722
0.000194939
0.000145269
0.000266438
0.000230868
0.010836
0.0103254
0.00827502
0.00672437
0.00596662
0.0056537
0.00529611
0.00464749
0.00369248
0.00264563
0.00155603
0.000802155
0.000478049
0.000333755
0.000273021
0.000257985
0.000273673
0.000293549
0.000231912
0.000192062
0.00016685
0.000151978
0.00014643
0.000151719
0.000172877
0.000174878
0.000180573
0.000191734
0.000207701
0.000225375
0.000238758
0.000240911
0.00023106
0.000210268
0.000189364
0.000223899
0.000250403
0.000369091
0.00033941
0.000341204
0.0195011
0.0172153
0.0119004
0.00816732
0.00613574
0.00517465
0.00465444
0.00415775
0.0034895
0.00269211
0.00188306
0.00118203
0.000654316
0.000410233
0.00030159
0.000252807
0.000233499
0.000226728
0.000214005
0.000196876
0.000176952
0.000162703
0.000156505
0.000157099
0.000163072
0.000168584
0.000179
0.000198476
0.000227401
0.000262244
0.000295199
0.000315564
0.000312127
0.000287086
0.000262722
0.000255574
0.000265825
0.000308924
0.000554945
0.0007385
0.0238165
0.0247806
0.0161342
0.00834879
0.00562592
0.00451224
0.0039944
0.00359041
0.00307638
0.00244629
0.0017978
0.00124017
0.000812238
0.000501448
0.000353869
0.000279804
0.000240954
0.000225961
0.000225055
0.000220151
0.000202924
0.000186504
0.000178038
0.00017542
0.000176018
0.000180823
0.00019675
0.000228797
0.000276711
0.000336552
0.000400623
0.000458821
0.000498763
0.000489933
0.000482998
0.000512974
0.000596169
0.000709474
0.00113801
0.00127682
0.0293897
0.0352316
0.0294395
0.00741007
0.00445932
0.00369333
0.00336249
0.00306175
0.00265108
0.00214029
0.00161268
0.00115625
0.000813044
0.000575692
0.000420293
0.000331112
0.000273592
0.000243127
0.00024611
0.000258878
0.000249814
0.000229851
0.00021599
0.000207669
0.000203112
0.000209249
0.000234832
0.00028229
0.000349535
0.000433608
0.000532483
0.000647349
0.000783294
0.0009454
0.00111536
0.00152542
0.00228961
0.00297598
0.00650235
0.00222623
0.0379875
0.0610925
0.067712
0.0161638
0.00409716
0.00329147
0.00293829
0.00266936
0.00230081
0.00186637
0.00142996
0.00105475
0.000772961
0.000586662
0.000474473
0.000404314
0.000337181
0.000279315
0.00027305
0.000310643
0.000327411
0.000307907
0.000282443
0.000261258
0.000249696
0.000260934
0.000297544
0.000352304
0.000421728
0.000507676
0.000615387
0.000754215
0.000934824
0.00116415
0.00145538
0.00182572
0.00223766
0.00258803
0.00292536
0.0018195
0.140181
0.0299708
0.00421484
0.00294475
0.00264706
0.0024193
0.00209177
0.00168122
0.00130817
0.000996929
0.000764914
0.000613285
0.000529974
0.000485075
0.000429649
0.000346672
0.000309565
0.000370447
0.000445655
0.000446751
0.000395459
0.000346785
0.000327161
0.000352671
0.00040363
0.000447308
0.000486649
0.000535948
0.000604937
0.000702742
0.000839628
0.00102461
0.00124381
0.00145823
0.00159651
0.00157203
0.00138655
0.000864848
0.0189442
0.00366844
0.00236131
0.00235292
0.00242984
0.00234371
0.00210445
0.0017065
0.00136978
0.00110322
0.000899255
0.000753773
0.000654924
0.000578788
0.000502745
0.000414552
0.000361145
0.000431255
0.000610618
0.000642169
0.000569805
0.000472304
0.000440909
0.000471874
0.000506219
0.000521378
0.000538018
0.000569276
0.000622363
0.000708422
0.00083981
0.00102358
0.00125234
0.00148941
0.00166048
0.00173223
0.00106605
0.000907196
0.00248455
0.00366816
0.00501133
0.00201216
0.00232345
0.00277845
0.00306247
0.00309033
0.00291755
0.00236327
0.00197893
0.00165542
0.00138442
0.00116102
0.000976386
0.000816399
0.000677046
0.000547611
0.000436621
0.000384221
0.000467345
0.000507706
0.000435229
0.000366996
0.000371782
0.000414225
0.000459195
0.000494326
0.000505014
0.000521704
0.000565365
0.000645117
0.000765166
0.000928081
0.00112955
0.00135966
0.0014726
0.00134494
0.00102529
0.000777129
)
;

boundaryField
{
    floor
    {
        Cmu             0.09;
        kappa           0.41;
        E               9.8;
        type            epsilonWallFunction;
        value           nonuniform List<scalar> 
29
(
0.000393007
6.79749e-05
0.000144059
0.000194381
0.000218278
0.000227751
0.000210281
0.000166734
0.00012746
9.63296e-05
7.14751e-05
5.22935e-05
3.83642e-05
2.90441e-05
2.3384e-05
2.04253e-05
1.97931e-05
2.24401e-05
3.35661e-05
3.29234e-05
3.29234e-05
8.03334e-05
0.000137899
0.000230868
0.000393007
6.79749e-05
0.000222372
0.000535903
0.000911647
)
;
    }
    ceiling
    {
        Cmu             0.09;
        kappa           0.41;
        E               9.8;
        type            epsilonWallFunction;
        value           nonuniform List<scalar> 
43
(
0.00248455
0.00366816
0.00501133
0.00201216
0.00232345
0.00277845
0.00306247
0.00309033
0.00291755
0.00236327
0.00197893
0.00165542
0.00138442
0.00116102
0.000976386
0.000816399
0.000677046
0.000547611
0.000436621
0.000384221
0.000467345
0.000507706
0.000435229
0.000366996
0.000371782
0.000414225
0.000459195
0.000494326
0.000505014
0.000521704
0.000565365
0.000645117
0.000765166
0.000928081
0.00112955
0.00135966
0.0014726
0.00134494
0.00102529
0.000777129
0.0379875
0.0610925
0.0189442
)
;
    }
    sWall
    {
        Cmu             0.09;
        kappa           0.41;
        E               9.8;
        type            epsilonWallFunction;
        value           uniform 0.00248455;
    }
    nWall
    {
        Cmu             0.09;
        kappa           0.41;
        E               9.8;
        type            epsilonWallFunction;
        value           nonuniform List<scalar> 6(0.000341204 0.0007385 0.00127682 0.000864848 0.000907196 0.000777129);
    }
    sideWalls
    {
        type            empty;
    }
    glass1
    {
        Cmu             0.09;
        kappa           0.41;
        E               9.8;
        type            epsilonWallFunction;
        value           nonuniform List<scalar> 9(0.000890402 0.00219796 0.00308973 0.00313116 0.010836 0.0195011 0.0238165 0.0293897 0.0379875);
    }
    glass2
    {
        Cmu             0.09;
        kappa           0.41;
        E               9.8;
        type            epsilonWallFunction;
        value           nonuniform List<scalar> 2(0.00222623 0.0018195);
    }
    sun
    {
        Cmu             0.09;
        kappa           0.41;
        E               9.8;
        type            epsilonWallFunction;
        value           nonuniform List<scalar> 
14
(
0.000890402
0.00120564
0.00123346
0.00120261
0.00104879
0.000874482
0.000748055
0.000661384
0.000603051
0.000558996
0.000522059
0.000487816
0.000454529
0.000423342
)
;
    }
    heatsource1
    {
        Cmu             0.09;
        kappa           0.41;
        E               9.8;
        type            epsilonWallFunction;
        value           nonuniform List<scalar> 3(0.000369091 0.00033941 0.000341204);
    }
    heatsource2
    {
        Cmu             0.09;
        kappa           0.41;
        E               9.8;
        type            epsilonWallFunction;
        value           nonuniform List<scalar> 4(0.000418412 0.000263192 0.000263192 0.000610598);
    }
    Table_master
    {
        Cmu             0.09;
        kappa           0.41;
        E               9.8;
        type            epsilonWallFunction;
        value           nonuniform List<scalar> 9(0.000328888 0.000173104 0.000104763 6.96262e-05 4.91078e-05 3.63265e-05 2.83221e-05 2.36612e-05 2.26233e-05);
    }
    Table_slave
    {
        Cmu             0.09;
        kappa           0.41;
        E               9.8;
        type            epsilonWallFunction;
        value           nonuniform List<scalar> 9(0.000360384 0.000302478 0.000303106 0.000314629 0.000330812 0.000345982 0.000351333 0.000335215 0.000301722);
    }
    inlet
    {
        type            turbulentMixingLengthDissipationRateInlet;
        mixingLength    0.01;
        phi             phi;
        k               k;
        value           uniform 3.77336e-06;
    }
    outlet
    {
        type            zeroGradient;
    }
}


// ************************************************************************* //
