/*--------------------------------*- C++ -*----------------------------------*\
  =========                 |
  \\      /  F ield         | OpenFOAM: The Open Source CFD Toolbox
   \\    /   O peration     | Website:  https://openfoam.org
    \\  /    A nd           | Version:  6
     \\/     M anipulation  |
\*---------------------------------------------------------------------------*/
FoamFile
{
    version     2.0;
    format      ascii;
    class       volScalarField;
    location    "40";
    object      nut;
}
// * * * * * * * * * * * * * * * * * * * * * * * * * * * * * * * * * * * * * //

dimensions      [0 2 -1 0 0 0 0];

internalField   nonuniform List<scalar> 
459
(
0.00136002
0.00150458
0.00151605
0.00150321
0.00143604
0.00135147
0.00128276
0.00123105
0.00119366
0.00116381
0.00113756
0.00111213
0.00108626
0.00106086
0.00103495
0.000576779
0.000740934
0.000818713
0.00085102
0.000863203
0.000840594
0.000778093
0.000711528
0.000648203
0.000586916
0.000528929
0.000477063
0.00043475
0.000404344
0.000386386
0.000382205
0.000398349
0.000455446
0.000452621
0.00183803
0.00611226
0.0071328
0.00796049
0.00802511
0.0075905
0.00700243
0.00651093
0.00617182
0.00591348
0.00565151
0.00528519
0.00467908
0.00368864
0.00228629
0.00105687
0.000905709
0.000856463
0.0023464
0.00380067
0.00467279
0.00471148
0.00395714
0.00268015
0.00216582
0.00177023
0.00146408
0.0012313
0.00106352
0.00095181
0.000884222
0.000849939
0.000875869
0.00101764
0.00144297
0.000609405
0.00205889
0.00705789
0.00782632
0.00982185
0.010416
0.0102163
0.00962306
0.0089552
0.00838519
0.00798168
0.00772078
0.00744779
0.00689164
0.00582645
0.00425837
0.00259256
0.00119893
0.00114811
0.00495125
0.00673598
0.00716035
0.00650251
0.0044098
0.000975702
0.000787839
0.000666457
0.000581658
0.000517801
0.00046831
0.000430997
0.000405857
0.000399687
0.000608111
0.0010532
0.00190867
0.000729725
0.00206809
0.00353071
0.00430146
0.00595048
0.00783517
0.00912829
0.0097111
0.00978199
0.00955949
0.0091148
0.00867285
0.00847568
0.00823933
0.00754733
0.00617169
0.00429389
0.00246086
0.00137063
0.00564519
0.0076367
0.00848507
0.00835563
0.00719843
0.00426319
0.00100576
0.00094872
0.000949273
0.000961085
0.000977236
0.000991902
0.000996931
0.000981374
0.00094754
0.00107803
0.00137081
0.00219714
0.000866451
0.00312909
0.00365689
0.00370756
0.00391222
0.00472335
0.00602083
0.00738691
0.00847284
0.00909392
0.00924039
0.00914808
0.00908658
0.00904208
0.00886486
0.00831533
0.00753621
0.00691903
0.00679943
0.00816838
0.00895515
0.00918559
0.00891839
0.00817042
0.00697998
0.00572901
0.0055355
0.00547207
0.00545437
0.00543991
0.00539146
0.00527851
0.0050646
0.00455342
0.00390409
0.00336053
0.0030119
0.00187124
0.00101315
0.000985228
0.000988007
0.0038053
0.00477793
0.00468233
0.00439697
0.00450018
0.00517918
0.0062701
0.00743748
0.00836299
0.00890206
0.00912112
0.00920106
0.00936347
0.00932867
0.00898517
0.0084129
0.00797862
0.00795803
0.00837807
0.00877675
0.00894026
0.00878173
0.00835177
0.00780134
0.00734341
0.00716787
0.00712061
0.00709103
0.00701652
0.00687873
0.006692
0.00648073
0.00622074
0.00574645
0.00512512
0.00440987
0.00344587
0.00280399
0.00274585
0.00127704
0.00406744
0.00576706
0.00587634
0.00498381
0.00476792
0.00512514
0.00597629
0.0070272
0.00795416
0.00857338
0.00889601
0.00906654
0.00922994
0.00936606
0.00899803
0.00821696
0.00743029
0.00708184
0.00726496
0.00772596
0.00807047
0.00805061
0.00773327
0.00732875
0.00706228
0.00702163
0.00709542
0.00712621
0.00704747
0.00688113
0.00668762
0.00653007
0.00645167
0.00640023
0.00609413
0.00558454
0.00495475
0.00446482
0.00392759
0.0015328
0.00436272
0.00579816
0.00642888
0.00544109
0.00515937
0.00540225
0.00612938
0.00704683
0.00787349
0.00843543
0.00872537
0.00885647
0.0089647
0.00906713
0.00880412
0.00786531
0.00662848
0.00577908
0.00573847
0.00635612
0.00698954
0.00707746
0.00671788
0.00626227
0.00606859
0.00623689
0.00652177
0.00666022
0.00659944
0.00642568
0.00624852
0.00615418
0.00620157
0.00640645
0.00657587
0.00651867
0.00645806
0.00611146
0.00596909
0.00184561
0.00475235
0.00556783
0.00791277
0.00582674
0.00572796
0.00615524
0.00662746
0.00738103
0.00808926
0.00851786
0.00869261
0.00870415
0.0086706
0.00863259
0.00839873
0.00757119
0.00610572
0.00469236
0.00426043
0.0049585
0.00598673
0.00620835
0.00568896
0.00508087
0.00496759
0.00542573
0.00596282
0.0061747
0.00606119
0.00578894
0.00549979
0.00525691
0.00505665
0.00485719
0.00465174
0.00437829
0.00395457
0.00343746
0.00301214
0.00172567
0.0106566
0.00607122
0.00591531
0.00706134
0.00740683
0.00792146
0.00842412
0.00868335
0.00865216
0.00845919
0.00820494
0.00794894
0.00764979
0.00695014
0.00566448
0.00403331
0.00308995
0.003647
0.00506649
0.00556693
0.00479354
0.00400683
0.00400633
0.00477065
0.0055615
0.00580645
0.00563351
0.00530418
0.00498375
0.00473086
0.00454338
0.00439757
0.00420561
0.00389076
0.00341289
0.00281349
0.00220525
0.00134673
0.00376887
0.00405912
0.00620741
0.00696797
0.00738631
0.00772043
0.00792948
0.00791788
0.00759465
0.00716677
0.00670172
0.00625294
0.00581761
0.00529153
0.0043425
0.00310684
0.00222149
0.00247836
0.00397556
0.00469959
0.0038279
0.00302035
0.00308309
0.0038359
0.00457341
0.00474984
0.00465059
0.00447796
0.00433025
0.00425434
0.00425351
0.00428495
0.00428222
0.00417007
0.00390616
0.00351456
0.0027995
0.00136834
0.00191482
0.00218039
0.0024194
0.00178468
0.00187233
0.00198736
0.00205288
0.00205908
0.00201994
0.00188294
0.00177478
0.00167229
0.00157559
0.00148588
0.00140263
0.00132155
0.00124183
0.00115722
0.00107308
0.00102743
0.00109591
0.00112716
0.00107037
0.0010115
0.00101649
0.00105395
0.00109072
0.00111756
0.00112536
0.00113765
0.00116867
0.00122135
0.00129289
0.0013788
0.00147206
0.0015658
0.0016081
0.00156026
0.00142533
0.0012996
)
;

boundaryField
{
    floor
    {
        type            nutkWallFunction;
        Cmu             0.09;
        kappa           0.41;
        E               9.8;
        value           nonuniform List<scalar> 
29
(
0.000124868
6.94663e-05
8.97501e-05
9.91718e-05
0.000103049
0.000104503
0.00010179
9.42488e-05
8.6139e-05
7.83383e-05
7.07005e-05
6.33861e-05
5.6764e-05
5.13014e-05
4.73411e-05
4.4991e-05
4.44538e-05
4.66011e-05
5.40599e-05
5.36842e-05
5.36841e-05
7.35868e-05
8.84285e-05
0.000104952
0.000124868
6.94662e-05
0.000103687
0.000138011
0.000163507
)
;
    }
    ceiling
    {
        type            nutkWallFunction;
        Cmu             0.09;
        kappa           0.41;
        E               9.8;
        value           nonuniform List<scalar> 
43
(
0.000224105
0.000252963
0.000278619
0.000209822
0.000219466
0.000232047
0.000239179
0.000239853
0.000235598
0.000220627
0.000208726
0.000197375
0.000186594
0.000176527
0.000167121
0.000157898
0.000148762
0.000138999
0.000129225
0.000123964
0.000132036
0.00013562
0.000129043
0.000122123
0.000122656
0.00012703
0.000131327
0.000134474
0.000135397
0.000136821
0.0001404
0.000146463
0.000154659
0.00016444
0.000174986
0.000185517
0.000190235
0.000184887
0.000169711
0.000155426
0.000518427
0.000599051
0.000419214
)
;
    }
    sWall
    {
        type            nutkWallFunction;
        Cmu             0.09;
        kappa           0.41;
        E               9.8;
        value           uniform 0.000224162;
    }
    nWall
    {
        type            nutkWallFunction;
        Cmu             0.09;
        kappa           0.41;
        E               9.8;
        value           nonuniform List<scalar> 6(0.000119297 0.00015291 0.000181875 0.000160815 0.000163272 0.000155439);
    }
    sideWalls
    {
        type            empty;
    }
    glass1
    {
        type            nutkWallFunction;
        Cmu             0.09;
        kappa           0.41;
        E               9.8;
        value           nonuniform List<scalar> 9(0.000162506 0.00021601 0.000240203 0.000241209 0.000353889 0.000423612 0.000450265 0.000480076 0.000519107);
    }
    glass2
    {
        type            nutkWallFunction;
        Cmu             0.09;
        kappa           0.41;
        E               9.8;
        value           nonuniform List<scalar> 2(0.000216655 0.000203412);
    }
    sun
    {
        type            nutkWallFunction;
        Cmu             0.09;
        kappa           0.41;
        E               9.8;
        value           nonuniform List<scalar> 
14
(
0.000162305
0.000178631
0.000179919
0.000178484
0.000170929
0.000161358
0.000153536
0.000147618
0.000143321
0.000139877
0.00013684
0.000133887
0.000130873
0.000127905
)
;
    }
    heatsource1
    {
        type            nutkWallFunction;
        Cmu             0.09;
        kappa           0.41;
        E               9.8;
        value           nonuniform List<scalar> 3(0.000122338 0.000119052 0.000119288);
    }
    heatsource2
    {
        type            nutkWallFunction;
        Cmu             0.09;
        kappa           0.41;
        E               9.8;
        value           nonuniform List<scalar> 4(0.000127421 0.000109584 0.000109584 0.000143893);
    }
    Table_master
    {
        type            nutkWallFunction;
        Cmu             0.09;
        kappa           0.41;
        E               9.8;
        value           nonuniform List<scalar> 9(0.000117861 9.54315e-05 8.06088e-05 7.00618e-05 6.19966e-05 5.56639e-05 5.08381e-05 4.7562e-05 4.67668e-05);
    }
    Table_slave
    {
        type            nutkWallFunction;
        Cmu             0.09;
        kappa           0.41;
        E               9.8;
        value           nonuniform List<scalar> 9(0.000121412 0.000114685 0.00011476 0.000116163 0.000118074 0.000119807 0.000120404 0.000118578 0.00011458);
    }
    inlet
    {
        type            calculated;
        value           uniform 3.3541e-05;
    }
    outlet
    {
        type            calculated;
        value           nonuniform List<scalar> 2(0.00191482 0.00218039);
    }
}


// ************************************************************************* //
