/*--------------------------------*- C++ -*----------------------------------*\
  =========                 |
  \\      /  F ield         | OpenFOAM: The Open Source CFD Toolbox
   \\    /   O peration     | Website:  https://openfoam.org
    \\  /    A nd           | Version:  6
     \\/     M anipulation  |
\*---------------------------------------------------------------------------*/
FoamFile
{
    version     2.0;
    format      ascii;
    class       surfaceScalarField;
    location    "40";
    object      phi;
}
// * * * * * * * * * * * * * * * * * * * * * * * * * * * * * * * * * * * * * //

dimensions      [1 0 -1 0 0 0 0];

internalField   nonuniform List<scalar> 
852
(
-0.0033365
0.00339555
-0.00440446
0.00106798
-0.00466868
0.000264239
-0.00471197
4.33041e-05
-0.00472783
1.58541e-05
-0.00471791
-9.92172e-06
-0.00465245
-6.54588e-05
-0.00451961
-0.000132838
-0.00430899
-0.000210619
-0.00400846
-0.000300527
-0.00360546
-0.000402978
-0.00308619
-0.000519251
-0.00241844
-0.000667724
-0.00148142
-0.000936993
-0.00147852
-0.000210607
0.000214966
0.000158574
-0.000369162
0.000587743
-0.000429149
0.000969556
-0.000381795
0.00134911
-0.00037954
0.00166526
-0.000316144
0.00176914
-0.000103865
0.0017396
2.95366e-05
0.00166789
7.17131e-05
0.00158683
8.10596e-05
0.0015084
7.84283e-05
0.00144074
6.76678e-05
0.00138672
5.40314e-05
0.00134007
4.66691e-05
0.00127744
6.2661e-05
0.00116535
0.000112112
0.000997883
0.000167502
0.000761545
0.00023637
0.000766676
-0.00226987
0.00582228
-0.0029392
0.00173737
-0.00284057
0.000165689
-0.00276311
-3.40736e-05
-0.00297477
0.000227568
-0.00329614
0.000311467
-0.0035573
0.000195693
-0.00368312
-7.03587e-06
-0.00366821
-0.000225549
-0.00354488
-0.00042387
-0.00332219
-0.000625683
-0.00299719
-0.000844249
-0.00256497
-0.00109992
-0.00209698
-0.00140496
-0.00195629
-0.00161918
-0.000605407
-0.00135091
-0.000605427
0.000820251
-0.000595347
0.00073588
-0.00028478
0.000667235
-0.000360491
0.000802916
-0.000517463
0.00106108
-0.000637688
0.00133538
-0.000590436
0.00138937
-0.000157845
0.00137323
4.56831e-05
0.00136013
8.48203e-05
0.00135248
8.87114e-05
0.00134909
8.18324e-05
0.00134904
6.77277e-05
0.00135043
5.26645e-05
0.00135019
4.69287e-05
0.00131786
9.50127e-05
0.00117556
0.000254423
0.000907252
0.000435827
0.000555004
0.000588634
0.0013343
-0.00129032
0.00735711
-0.000671253
0.00111839
0.000382907
-0.000888306
0.000436707
-8.76998e-05
-0.000101437
0.000765878
-0.000844152
0.00105429
-0.00158741
0.000939008
-0.00220595
0.00061151
-0.00259644
0.000164919
-0.00276217
-0.000258174
-0.00276936
-0.000618529
-0.00266105
-0.000952567
-0.00247375
-0.00128722
-0.00226567
-0.00161303
-0.00204752
-0.00183729
-0.00148453
-0.00191387
-0.00208992
-0.000149675
-0.000432224
-2.00077e-05
-0.000414433
0.00013785
-0.000518335
0.000301523
-0.000681121
0.00051543
-0.00085158
0.00100622
-0.00108121
0.00084854
0.000894386
0.000979369
0.00106825
0.00115024
0.00121814
0.00127097
0.00131807
0.00141325
0.00123816
0.000429516
0.000917722
0.00075627
0.000434248
0.00107211
0.0017871
0.00460882
0.0030799
0.00679027
-0.00106287
0.00675674
-0.000854569
0.00586522
0.000804054
0.00460983
0.00202152
0.00321113
0.00245323
0.00179737
0.00235296
0.000464851
0.00194414
-0.000678065
0.00130786
-0.00149704
0.00056076
-0.001934
-0.000181628
-0.00212052
-0.000766075
-0.00220072
-0.00120702
-0.00223915
-0.00157456
-0.0022486
-0.0018278
-0.00223309
-0.00192933
-0.00263851
-0.00168447
-0.00151558
-0.00110903
-0.00102276
-0.000925021
-0.00064262
-0.000794558
-0.000370043
-0.000790893
-0.000207701
-0.000843443
-0.000165338
-0.000893921
-0.000409635
-0.000836881
0.000102809
-0.000512568
0.000500965
-0.000398276
0.000859786
-0.000358937
0.00120037
-0.000340701
0.00152699
-0.000326735
0.00182723
-0.000300353
0.00206179
-0.000234673
0.00215138
-8.97068e-05
0.00198317
0.000168085
0.00179768
0.000615022
0.00141798
0.00113598
0.000814766
0.00167534
0.00262481
0.00967946
-0.00625099
0.0127009
-0.0040841
0.0123754
-0.000528849
0.0109918
0.00218786
0.00918071
0.00383283
0.00716595
0.00446821
0.00516292
0.00435619
0.00334962
0.00375759
0.0017747
0.00288285
0.00042161
0.00191383
-0.000643601
0.000883509
-0.00131375
-9.59701e-05
-0.00165712
-0.000863636
-0.00186559
-0.00136603
-0.00199139
-0.00170192
-0.00206209
-0.00185855
-0.00198433
-0.00176216
-0.00159026
-0.00150304
-0.00120537
-0.00130987
-0.000855509
-0.00114439
-0.000596295
-0.00105008
-0.000424416
-0.0010153
-0.000317755
-0.00100055
-0.000210426
-0.000944171
8.03903e-05
-0.000803336
0.000389811
-0.00070764
0.000677755
-0.000646818
0.000950476
-0.000613354
0.00121497
-0.000591155
0.00147039
-0.000555712
0.0017026
-0.000466827
0.00188083
-0.000267883
0.00195724
9.17013e-05
0.00195933
0.00061296
0.00188994
0.00120538
0.00174765
0.00181763
0.00230694
0.00206554
0.00116217
0.00114457
-6.20507e-05
0.00122405
-3.26372e-06
0.00624744
-0.0121062
0.00817552
-0.00601192
0.00840794
-0.000761009
0.00792788
0.0026682
0.00719871
0.00456227
0.00616356
0.0055036
0.00495107
0.0055689
0.00371968
0.00498915
0.00255757
0.00404506
0.00151229
0.00295913
0.00054952
0.00184624
-0.000309411
0.000762921
-0.000929305
-0.000243706
-0.00130075
-0.000994481
-0.00154448
-0.00145805
-0.00167753
-0.00172536
-0.00164584
-0.00179373
-0.00143052
-0.00171827
-0.00114106
-0.00159926
-0.000858348
-0.00142705
-0.000644502
-0.00126389
-0.000489424
-0.00117034
-0.000358374
-0.00113156
-0.000207155
-0.00109534
3.60385e-06
-0.00101403
0.000216962
-0.000920915
0.000412032
-0.000841795
0.000593814
-0.000795037
0.000776005
-0.000773245
0.000970961
-0.000750576
0.00118526
-0.000681051
0.00141537
-0.000497946
0.00163848
-0.000131378
0.00184381
0.00040765
0.00206869
0.000980512
0.0023774
0.00150891
0.0027438
0.00169914
0.00257495
0.00131342
0.00220674
0.00159225
0.00226334
0.000856195
-0.0125074
0.00186251
-0.00701793
0.00323045
-0.00212862
0.00336131
0.00253767
0.00356177
0.00436212
0.00346666
0.005599
0.00318308
0.00585273
0.00275705
0.00541537
0.00224812
0.0045541
0.00170518
0.00350212
0.00114039
0.00241105
0.000541163
0.00136217
-8.16415e-05
0.000379195
-0.000587308
-0.00048864
-0.00094471
-0.00110042
-0.00117542
-0.00149443
-0.00125472
-0.00171423
-0.00116363
-0.0018092
-0.00095687
-0.0018059
-0.000740407
-0.00164343
-0.000597265
-0.00140698
-0.000500249
-0.0012673
-0.000400918
-0.00123083
-0.00027469
-0.00122149
-0.000136786
-0.00115184
-2.93525e-05
-0.00102824
4.36731e-05
-0.00091469
9.92046e-05
-0.000850431
0.000159506
-0.000833413
0.000246853
-0.00083781
0.000382788
-0.000816905
0.000588509
-0.000703619
0.000880719
-0.000423568
0.00122395
6.44153e-05
0.00159059
0.000613869
0.00202856
0.00107093
0.00253642
0.00119127
0.00284524
0.0010046
0.00261054
0.00182695
0.0049351
-0.00274451
-0.00924766
-0.00369132
-0.00607077
-0.00228628
-0.0035333
-0.00128905
0.00154079
-0.00017738
0.00325078
0.000664316
0.00475759
0.00118318
0.00533412
0.001446
0.00515274
0.0015337
0.00446653
0.00149534
0.00354056
0.00134833
0.00255811
0.00109246
0.00161812
0.00071303
0.000758807
0.000247638
-2.29753e-05
-0.000184122
-0.000668325
-0.000538589
-0.00113961
-0.00076571
-0.00148679
-0.000820397
-0.00175425
-0.000699331
-0.00192675
-0.000537585
-0.00180505
-0.000487966
-0.00145653
-0.000493437
-0.00126177
-0.000466424
-0.00125777
-0.000390254
-0.00129755
-0.000333255
-0.0012087
-0.000353025
-0.00100831
-0.000433251
-0.000834292
-0.000538734
-0.000744774
-0.00064404
-0.000727952
-0.000730526
-0.000751208
-0.000778696
-0.000768663
-0.000758575
-0.000723708
-0.00062423
-0.000557909
-0.000338881
-0.000220952
1.18216e-05
0.000263147
0.000374979
0.000707757
0.00071455
0.000851688
0.000940559
0.000778583
0.000580774
0.00218674
0.00584612
-0.00867481
-0.0147414
-0.00970077
-0.00857355
-0.00555775
-0.00260191
-0.00325923
0.00095257
-0.00170572
0.00320436
-0.000567634
0.00419628
0.000253946
0.00433136
0.000812849
0.00390777
0.00120061
0.00315292
0.00142829
0.00233055
0.00148935
0.00155724
0.00138248
0.000865939
0.00110115
0.000258741
0.000704554
-0.000271278
0.00026497
-0.000699544
-0.000136128
-0.00108522
-0.000388609
-0.00150137
-0.000379516
-0.0019355
-0.000247498
-0.00193684
-0.000318034
-0.00138589
-0.000494603
-0.00108513
-0.000574028
-0.00117824
-0.000541695
-0.00132974
-0.000563425
-0.0011868
-0.000725562
-0.00084598
-0.000976412
-0.000583234
-0.00125605
-0.000464933
-0.00155149
-0.000432354
-0.00187225
-0.000430334
-0.00223755
-0.000403306
-0.00267065
-0.000290596
-0.00318974
-3.88073e-05
-0.00379042
0.000379717
-0.00450408
0.000976811
-0.00548812
0.00169181
-0.00698278
0.00234638
-0.00884734
0.00264318
-0.00842725
0.00176668
-0.00221245
-0.0082359
0.00031672
-0.00657193
-0.00426558
-0.00484436
-0.000774709
-0.00327563
0.00163591
-0.00187278
0.00279368
-0.000675474
0.00313427
0.000254967
0.0029775
0.000999481
0.00240857
0.00154316
0.00178706
0.00187259
0.00122807
0.001991
0.000747869
0.00190283
0.000347365
0.00162335
8.73448e-06
0.00120835
-0.000283955
0.000720497
-0.000596775
0.000265869
-0.00104619
5.40006e-05
-0.00172309
0.000110081
-0.00199252
-0.000106935
-0.00116873
-0.000539283
-0.000652694
-0.000740866
-0.000976532
-0.00074462
-0.0013258
-0.000836271
-0.00109493
-0.00110528
-0.000576748
-0.00146809
-0.000220193
-0.00182305
-0.000109755
-0.00216469
-9.05474e-05
-0.0025038
-9.11058e-05
-0.00284383
-6.32078e-05
-0.00317001
3.5622e-05
-0.00346117
0.000252374
-0.00371758
0.000636147
-0.00394857
0.00120782
-0.00415106
0.00189433
-0.00428656
0.00248192
-0.00416971
0.00252639
-0.00261775
0.000214792
-0.00473696
-0.00177609
0.00209856
-0.00454128
-0.00150009
-0.00493012
-0.000385586
-0.00405556
0.000761616
-0.00270236
0.00144073
-0.00127667
0.00170881
-2.51945e-05
0.00172624
0.00102405
0.00135953
0.0018164
0.000994974
0.00235258
0.000692207
0.00265198
0.000448871
0.00274074
0.000259102
0.00263051
0.000119543
0.00236986
-2.26662e-05
0.00198685
-0.000213105
0.00147857
-0.000537239
0.000880645
-0.00112443
0.000424191
-0.00153539
-2.04164e-05
-0.000723875
-0.000519054
-0.000153957
-0.00087284
-0.000622588
-0.0011576
-0.0010408
-0.001453
-0.000799274
-0.00171811
-0.000311403
-0.00195295
1.48827e-05
-0.00215308
9.05854e-05
-0.00230279
5.93477e-05
-0.00241668
2.29255e-05
-0.00250867
2.88785e-05
-0.0025679
9.49252e-05
-0.00254917
0.000233702
-0.00239768
0.000484702
-0.00207484
0.000885023
-0.00157301
0.00139254
-0.000657395
0.00156636
0.00087012
0.000998939
0.00148409
-0.00039909
-0.00315068
-0.00339156
-0.00580392
-0.00369683
-0.00518764
-0.00556453
-0.00479472
-0.00334597
-0.00162896
0.00010593
0.0014755
0.00248155
0.00318596
0.00364828
0.00392218
0.00405798
0.0040532
0.00385982
0.0033446
0.00224521
0.000738417
4.37946e-05
-8.13508e-05
-0.000674294
-0.00168506
-0.00245543
-0.0027394
-0.0026983
-0.00258241
-0.00249833
-0.00245126
-0.002399
-0.00228169
-0.0020267
-0.00152183
-0.000617715
0.000792914
0.00237685
0.00339367
0.00301377
)
;

boundaryField
{
    floor
    {
        type            calculated;
        value           nonuniform List<scalar> 
29
(
0
0
0
0
0
0
0
0
0
0
0
0
0
0
0
0
0
0
0
0
-5.10586e-06
-1.2601e-05
-1.85322e-05
-2.29262e-05
-2.8691e-06
-4.32447e-06
-9.93087e-06
-1.34339e-05
-1.38691e-05
)
;
    }
    ceiling
    {
        type            calculated;
        value           nonuniform List<scalar> 
43
(
-9.18058e-06
-9.02595e-06
-8.20602e-06
-8.96108e-06
-8.39761e-06
-7.90567e-06
-7.74027e-06
-7.92395e-06
-8.40147e-06
-9.74518e-06
-1.07471e-05
-1.18226e-05
-1.3e-05
-1.42855e-05
-1.56903e-05
-1.72587e-05
-1.90515e-05
-2.12488e-05
-2.41251e-05
-2.75884e-05
-2.88543e-05
-2.87419e-05
-2.94773e-05
-2.97142e-05
-2.86049e-05
-2.71769e-05
-2.59962e-05
-2.50843e-05
-2.45369e-05
-2.39855e-05
-2.32343e-05
-2.22774e-05
-2.11983e-05
-2.00872e-05
-1.90309e-05
-1.80312e-05
-1.75106e-05
-1.78164e-05
-1.9106e-05
-1.9979e-05
-2.90462e-06
-3.86778e-06
-5.43214e-06
)
;
    }
    sWall
    {
        type            calculated;
        value           uniform -0.000212612;
    }
    nWall
    {
        type            calculated;
        value           nonuniform List<scalar> 6(-5.87775e-05 -5.9902e-05 -6.1229e-05 -9.31357e-05 -0.000102099 -0.000116841);
    }
    sideWalls
    {
        type            empty;
        value           nonuniform 0();
    }
    glass1
    {
        type            calculated;
        value           nonuniform List<scalar> 9(-5.90449e-05 -0.000156818 -0.000244458 -0.000331531 -0.000348347 -0.000391935 -0.000454709 -0.000514883 -0.000569622);
    }
    glass2
    {
        type            calculated;
        value           nonuniform List<scalar> 2(-0.000330241 -0.000368636);
    }
    sun
    {
        type            calculated;
        value           uniform 0;
    }
    heatsource1
    {
        type            calculated;
        value           nonuniform List<scalar> 3(2.0582e-07 2.06316e-07 2.0677e-07);
    }
    heatsource2
    {
        type            calculated;
        value           nonuniform List<scalar> 4(5.15038e-08 5.16864e-08 0 0);
    }
    Table_master
    {
        type            calculated;
        value           nonuniform List<scalar> 9(-1.54814e-07 -1.54942e-07 -1.54935e-07 -1.54921e-07 -1.54905e-07 -1.54893e-07 -1.54882e-07 -1.54872e-07 -1.54838e-07);
    }
    Table_slave
    {
        type            calculated;
        value           nonuniform List<scalar> 9(1.54917e-07 1.54989e-07 1.54867e-07 1.54747e-07 1.5463e-07 1.54522e-07 1.54438e-07 1.54409e-07 1.54418e-07);
    }
    inlet
    {
        type            calculated;
        value           uniform -0.00065401;
    }
    outlet
    {
        type            calculated;
        value           nonuniform List<scalar> 2(0.00361371 0.00242172);
    }
}


// ************************************************************************* //
