/*--------------------------------*- C++ -*----------------------------------*\
  =========                 |
  \\      /  F ield         | OpenFOAM: The Open Source CFD Toolbox
   \\    /   O peration     | Website:  https://openfoam.org
    \\  /    A nd           | Version:  6
     \\/     M anipulation  |
\*---------------------------------------------------------------------------*/
FoamFile
{
    version     2.0;
    format      ascii;
    class       volScalarField;
    location    "40";
    object      T;
}
// * * * * * * * * * * * * * * * * * * * * * * * * * * * * * * * * * * * * * //

dimensions      [0 0 0 1 0 0 0];

internalField   nonuniform List<scalar> 
459
(
302.207
301.938
301.906
301.878
301.849
301.823
301.801
301.784
301.768
301.753
301.739
301.726
301.714
301.704
301.697
301.743
301.69
301.671
301.664
301.659
301.658
301.661
301.666
301.671
301.677
301.683
301.688
301.692
301.694
301.696
301.696
301.696
301.697
301.722
302.444
302.145
302.144
302.109
302.045
301.979
301.922
301.878
301.843
301.813
301.784
301.756
301.73
301.705
301.682
301.664
301.649
301.694
301.669
301.652
301.642
301.637
301.635
301.635
301.637
301.639
301.642
301.643
301.643
301.643
301.642
301.643
301.645
301.649
301.66
301.703
302.718
302.408
302.53
302.453
302.349
302.231
302.132
302.046
301.968
301.908
301.857
301.811
301.768
301.73
301.698
301.673
301.658
301.656
301.642
301.636
301.632
301.629
301.628
301.627
301.627
301.627
301.627
301.627
301.626
301.625
301.624
301.624
301.629
301.636
301.649
301.694
303.072
302.942
302.928
302.871
302.755
302.61
302.467
302.332
302.191
302.063
301.964
301.886
301.82
301.765
301.719
301.684
301.66
301.649
301.638
301.634
301.63
301.628
301.627
301.627
301.626
301.629
301.633
301.64
301.648
301.657
301.664
301.669
301.671
301.664
301.656
301.655
301.685
303.367
303.182
303.14
303.097
303.016
302.898
302.756
302.603
302.448
302.3
302.137
301.99
301.89
301.812
301.751
301.705
301.673
301.653
301.64
301.634
301.63
301.629
301.629
301.631
301.635
301.642
301.651
301.664
301.678
301.694
301.707
301.715
301.713
301.703
301.687
301.675
301.68
301.679
301.684
301.783
303.168
302.815
302.778
302.836
302.885
302.877
302.81
302.702
302.571
302.433
302.29
302.136
301.982
301.876
301.796
301.736
301.693
301.665
301.647
301.637
301.632
301.631
301.633
301.637
301.644
301.655
301.671
301.69
301.712
301.735
301.755
301.766
301.763
301.748
301.727
301.706
301.697
301.694
301.695
301.735
302.976
302.44
302.446
302.618
302.759
302.817
302.798
302.723
302.618
302.499
302.373
302.241
302.098
301.957
301.857
301.78
301.723
301.685
301.659
301.643
301.635
301.634
301.638
301.645
301.656
301.673
301.695
301.723
301.754
301.785
301.81
301.823
301.821
301.799
301.773
301.749
301.734
301.729
301.726
301.75
302.777
302.321
302.374
302.608
302.73
302.79
302.777
302.716
302.626
302.524
302.417
302.303
302.183
302.055
301.937
301.841
301.768
301.716
301.68
301.653
301.64
301.638
301.644
301.656
301.673
301.695
301.726
301.763
301.802
301.837
301.862
301.874
301.872
301.857
301.83
301.807
301.799
301.802
301.804
301.955
302.609
302.247
302.235
302.621
302.719
302.756
302.746
302.694
302.614
302.527
302.435
302.339
302.239
302.133
302.024
301.922
301.833
301.765
301.715
301.671
301.647
301.644
301.652
301.67
301.693
301.722
301.759
301.803
301.845
301.88
301.903
301.915
301.92
301.925
301.931
301.947
301.977
302.015
302.048
302.128
301.813
302.568
302.676
302.707
302.699
302.659
302.593
302.513
302.437
302.358
302.275
302.189
302.096
302.003
301.915
301.84
301.773
301.701
301.657
301.65
301.663
301.688
301.718
301.751
301.789
301.833
301.874
301.906
301.928
301.942
301.951
301.958
301.968
301.982
302.004
302.026
302.042
302.05
302.297
302.57
302.621
302.643
302.64
302.612
302.564
302.49
302.428
302.365
302.3
302.231
302.159
302.081
302.004
301.932
301.856
301.753
301.674
301.658
301.676
301.711
301.749
301.781
301.814
301.851
301.884
301.911
301.931
301.945
301.956
301.964
301.973
301.984
301.998
302.012
302.004
302.032
302.488
302.419
302.432
302.541
302.561
302.571
302.57
302.555
302.526
302.454
302.409
302.365
302.319
302.271
302.221
302.168
302.111
302.047
301.961
301.828
301.7
301.678
301.696
301.743
301.791
301.825
301.852
301.876
301.898
301.918
301.934
301.946
301.956
301.963
301.97
301.979
301.988
301.992
301.991
302.023
)
;

boundaryField
{
    floor
    {
        type            wallHeatTransfer;
        Tinf            uniform 305.2;
        alphaWall       uniform 0.24;
        value           nonuniform List<scalar> 
29
(
302.077
302.315
302.178
302.127
302.108
302.1
302.107
302.136
302.171
302.21
302.254
302.301
302.349
302.394
302.429
302.451
302.456
302.436
302.376
302.399
302.399
302.26
302.186
302.121
302.077
302.315
302.132
302.011
301.96
)
;
    }
    ceiling
    {
        type            wallHeatTransfer;
        Tinf            uniform 303.2;
        alphaWall       uniform 0.24;
        value           nonuniform List<scalar> 
43
(
302.536
302.466
302.475
302.588
302.604
302.612
302.61
302.596
302.57
302.505
302.466
302.427
302.388
302.347
302.305
302.261
302.214
302.162
302.092
301.977
301.855
301.833
301.855
301.903
301.946
301.972
301.992
302.011
302.031
302.048
302.059
302.066
302.07
302.071
302.072
302.075
302.081
302.088
302.094
302.13
302.627
302.273
302.332
)
;
    }
    sWall
    {
        type            wallHeatTransfer;
        Tinf            uniform 315.2;
        alphaWall       uniform 0.36;
        value           uniform 303.733;
    }
    nWall
    {
        type            wallHeatTransfer;
        Tinf            uniform 307.2;
        alphaWall       uniform 0.36;
        value           nonuniform List<scalar> 6(302.649 302.46 302.381 302.708 302.685 302.702);
    }
    sideWalls
    {
        type            empty;
    }
    glass1
    {
        type            wallHeatTransfer;
        Tinf            uniform 315.2;
        alphaWall       uniform 4.3;
        value           nonuniform List<scalar> 9(310.514 309.81 309.624 309.772 308.835 308.215 307.928 307.623 307.294);
    }
    glass2
    {
        type            wallHeatTransfer;
        Tinf            uniform 307.2;
        alphaWall       uniform 4.3;
        value           nonuniform List<scalar> 2(304.962 305.108);
    }
    sun
    {
        type            wallHeatTransfer;
        Tinf            uniform 305.2;
        alphaWall       uniform 0.24;
        value           nonuniform List<scalar> 
14
(
302.471
302.204
302.173
302.149
302.132
302.122
302.115
302.109
302.102
302.096
302.089
302.083
302.079
302.076
)
;
    }
    heatsource1
    {
        type            fixedGradient;
        gradient        uniform 0;
    }
    heatsource2
    {
        type            fixedGradient;
        gradient        uniform 0;
    }
    Table_master
    {
        type            zeroGradient;
    }
    Table_slave
    {
        type            zeroGradient;
    }
    inlet
    {
        type            fixedValue;
        value           uniform 290.15;
    }
    outlet
    {
        type            zeroGradient;
    }
}


// ************************************************************************* //
