/*--------------------------------*- C++ -*----------------------------------*\
  =========                 |
  \\      /  F ield         | OpenFOAM: The Open Source CFD Toolbox
   \\    /   O peration     | Website:  https://openfoam.org
    \\  /    A nd           | Version:  6
     \\/     M anipulation  |
\*---------------------------------------------------------------------------*/
FoamFile
{
    version     2.0;
    format      ascii;
    class       volVectorField;
    location    "40";
    object      U;
}
// * * * * * * * * * * * * * * * * * * * * * * * * * * * * * * * * * * * * * //

dimensions      [0 1 -1 0 0 0 0];

internalField   nonuniform List<vector> 
459
(
(0.00305471 0.0965007 0)
(-0.185499 0.0261191 0)
(-0.195636 0.00407526 0)
(-0.200602 -0.00120773 0)
(-0.20238 -0.00230474 0)
(-0.203106 -0.0034628 0)
(-0.201569 -0.00523125 0)
(-0.197363 -0.00744993 0)
(-0.190038 -0.0101376 0)
(-0.179272 -0.0133518 0)
(-0.164194 -0.0173046 0)
(-0.143104 -0.0224041 0)
(-0.114741 -0.0298453 0)
(-0.0853185 -0.0420815 0)
(-0.0806414 -0.059278 0)
(0.0518246 0.0080486 0)
(-0.00800294 -0.0115515 0)
(0.0149608 -0.0156738 0)
(0.0327145 -0.014999 0)
(0.0492573 -0.0145793 0)
(0.0644674 -0.0120033 0)
(0.0747149 -0.00578586 0)
(0.0769132 -0.00176529 0)
(0.0740241 0.000176891 0)
(0.0698988 0.00108996 0)
(0.0661305 0.00146714 0)
(0.0629662 0.00144488 0)
(0.0603975 0.00119378 0)
(0.0583152 0.00100811 0)
(0.0561706 0.00137869 0)
(0.0527629 0.00268616 0)
(0.0470149 0.00384529 0)
(0.0437466 0.00543267 0)
(-0.0176928 0.0204994 0)
(0.168526 0.193894 0)
(-0.152196 0.0608373 0)
(-0.122441 0.00969209 0)
(-0.116292 0.00114342 0)
(-0.121371 0.00390625 0)
(-0.134811 0.00298479 0)
(-0.148382 -0.00105317 0)
(-0.156993 -0.0062355 0)
(-0.158731 -0.0115805 0)
(-0.155611 -0.0171156 0)
(-0.147984 -0.0233021 0)
(-0.135655 -0.0304639 0)
(-0.118944 -0.0394625 0)
(-0.101057 -0.0518655 0)
(-0.0857718 -0.0642097 0)
(-0.0608491 -0.0544166 0)
(-0.0299345 -0.0316882 0)
(0.103008 -0.00808881 0)
(0.0322196 -0.00947546 0)
(0.0239113 -0.0148388 0)
(0.0299583 -0.0193065 0)
(0.0392567 -0.0226624 0)
(0.050252 -0.0206871 0)
(0.0602744 -0.00542266 0)
(0.0611201 0.00266503 0)
(0.0590575 0.00521066 0)
(0.0578914 0.00560851 0)
(0.0576612 0.00526043 0)
(0.0577166 0.00457789 0)
(0.0578091 0.00385994 0)
(0.0578947 0.00352561 0)
(0.0573677 0.0044599 0)
(0.0542437 0.00863295 0)
(0.0459659 0.0125758 0)
(0.0442987 0.0178227 0)
(-0.0627691 0.0436457 0)
(0.346258 0.276716 0)
(-0.12946 0.0261055 0)
(0.00923518 -0.0450535 0)
(0.0191249 -0.0133259 0)
(0.0106846 0.0161668 0)
(-0.0198406 0.0238428 0)
(-0.0532127 0.0169896 0)
(-0.0830574 0.0046769 0)
(-0.105989 -0.00842986 0)
(-0.116832 -0.0194787 0)
(-0.119729 -0.030203 0)
(-0.116935 -0.041452 0)
(-0.110295 -0.0537912 0)
(-0.101823 -0.0669496 0)
(-0.0913001 -0.0767303 0)
(-0.0763184 -0.0765788 0)
(-0.0750927 -0.0783956 0)
(0.0569815 -0.0224528 0)
(-0.00689715 -0.01573 0)
(0.00110799 -0.0184375 0)
(0.00949135 -0.0254666 0)
(0.0179848 -0.0322901 0)
(0.0261131 -0.0369538 0)
(0.045539 -0.0166217 0)
(0.042176 -0.0045682 0)
(0.040053 -0.000493338 0)
(0.0430398 0.000388984 0)
(0.047305 0.000164514 0)
(0.0508574 -0.000525328 0)
(0.0534739 -0.00131294 0)
(0.0556136 -0.00176477 0)
(0.0580389 0.000835032 0)
(0.0581628 0.0166774 0)
(0.0480337 0.0273138 0)
(0.0513927 0.0371786 0)
(-0.0978497 0.0683079 0)
(0.589114 0.360029 0)
(0.240036 0.115738 0)
(0.2635 0.0407338 0)
(0.274532 0.0563268 0)
(0.232914 0.0773421 0)
(0.169935 0.0804423 0)
(0.106719 0.0695363 0)
(0.0479875 0.0507218 0)
(-0.00802458 0.0242187 0)
(-0.0514464 -0.00300294 0)
(-0.0768667 -0.0238334 0)
(-0.0882945 -0.0404319 0)
(-0.0931665 -0.0559991 0)
(-0.0951282 -0.0701349 0)
(-0.0957778 -0.079772 0)
(-0.0980988 -0.0812581 0)
(-0.106282 -0.0673684 0)
(-0.0916195 -0.0111192 0)
(-0.0504091 -0.0279344 0)
(-0.0359402 -0.0252836 0)
(-0.0210517 -0.0278654 0)
(-0.0115525 -0.0326241 0)
(-0.00715221 -0.0373979 0)
(-0.0101597 -0.0396657 0)
(-0.0123619 -0.0200729 0)
(0.0123398 -0.0153694 0)
(0.0292051 -0.0140363 0)
(0.0442195 -0.0133931 0)
(0.058401 -0.01288 0)
(0.0717813 -0.0120067 0)
(0.0833444 -0.0100433 0)
(0.090906 -0.00598433 0)
(0.0915004 0.000624238 0)
(0.0830151 0.0206568 0)
(0.0694091 0.0411813 0)
(0.0709368 0.0606317 0)
(-0.0828495 0.0979956 0)
(0.798602 -0.104087 0)
(0.475939 -0.131529 0)
(0.50272 -0.0562871 0)
(0.51306 0.0392818 0)
(0.448251 0.110899 0)
(0.35483 0.14371 0)
(0.262703 0.144685 0)
(0.179496 0.12505 0)
(0.106402 0.0932471 0)
(0.0451974 0.0557217 0)
(-0.00926559 0.0125736 0)
(-0.047033 -0.0235008 0)
(-0.0652972 -0.0468875 0)
(-0.0762222 -0.0646472 0)
(-0.0834231 -0.0768573 0)
(-0.0883321 -0.0823191 0)
(-0.0883207 -0.0777437 0)
(-0.0776757 -0.0586176 0)
(-0.0593814 -0.0491759 0)
(-0.0437389 -0.0421924 0)
(-0.0303639 -0.0397643 0)
(-0.0212211 -0.0399264 0)
(-0.0156496 -0.040396 0)
(-0.0119482 -0.0382201 0)
(-0.00398622 -0.0296293 0)
(0.010131 -0.0255092 0)
(0.0229737 -0.0230152 0)
(0.0349429 -0.0216838 0)
(0.0463722 -0.0206857 0)
(0.0574523 -0.0190166 0)
(0.067909 -0.0151392 0)
(0.0768717 -0.00692637 0)
(0.0834053 0.00742243 0)
(0.0854216 0.028497 0)
(0.0831485 0.0520112 0)
(0.0958532 0.0770908 0)
(0.0499231 0.103078 0)
(0.089714 0.0683316 0)
(0.133464 0.0525946 0)
(-0.395072 0.00590197 0)
(0.759488 -0.497539 0)
(0.221528 -0.289833 0)
(0.310507 -0.0777095 0)
(0.368817 0.083498 0)
(0.344861 0.175947 0)
(0.292957 0.215888 0)
(0.238404 0.217214 0)
(0.184362 0.192701 0)
(0.132288 0.15355 0)
(0.0849546 0.108736 0)
(0.0423111 0.0625604 0)
(0.00355306 0.01584 0)
(-0.0302654 -0.0262745 0)
(-0.0491615 -0.0521126 0)
(-0.0619713 -0.0688055 0)
(-0.0703972 -0.0775971 0)
(-0.0727797 -0.0773102 0)
(-0.0669867 -0.0698492 0)
(-0.0552255 -0.0628708 0)
(-0.0424287 -0.0555769 0)
(-0.0316074 -0.0500841 0)
(-0.0239513 -0.0471834 0)
(-0.0182112 -0.0457518 0)
(-0.0125685 -0.043667 0)
(-0.00483377 -0.0391802 0)
(0.00489324 -0.0353627 0)
(0.0136725 -0.0326168 0)
(0.0216337 -0.0310198 0)
(0.0292788 -0.030077 0)
(0.0371837 -0.028723 0)
(0.0457449 -0.0250957 0)
(0.0550622 -0.0164843 0)
(0.0653551 -0.000164701 0)
(0.0754314 0.0232138 0)
(0.0835819 0.0487913 0)
(0.0997553 0.0740423 0)
(0.102106 0.0839732 0)
(0.116493 0.0557402 0)
(0.140536 0.0607134 0)
(-0.103168 0.0671855 0)
(0.644221 -0.540795 0)
(-0.131267 -0.26876 0)
(0.0770951 -0.0300239 0)
(0.179578 0.131289 0)
(0.167736 0.207805 0)
(0.155674 0.24814 0)
(0.14406 0.252929 0)
(0.127477 0.229887 0)
(0.106368 0.190089 0)
(0.0834641 0.143272 0)
(0.0598929 0.0952607 0)
(0.0357172 0.0490108 0)
(0.00949614 0.00487294 0)
(-0.0163161 -0.0330864 0)
(-0.0336926 -0.0562333 0)
(-0.046587 -0.0703699 0)
(-0.0536524 -0.076572 0)
(-0.053164 -0.07684 0)
(-0.0458162 -0.073785 0)
(-0.0359009 -0.0665393 0)
(-0.0280574 -0.0581528 0)
(-0.0234033 -0.0530566 0)
(-0.0195719 -0.0511757 0)
(-0.014801 -0.0500536 0)
(-0.00882762 -0.0470391 0)
(-0.00319583 -0.0427501 0)
(0.000677795 -0.0388395 0)
(0.0032415 -0.0365507 0)
(0.00551062 -0.0357695 0)
(0.00841748 -0.0354674 0)
(0.0127917 -0.0337017 0)
(0.0194307 -0.0275308 0)
(0.0292811 -0.013553 0)
(0.0456035 0.00981124 0)
(0.0603054 0.0347343 0)
(0.0788901 0.0563652 0)
(0.0965745 0.0622957 0)
(0.115091 0.0492388 0)
(0.155158 0.0710954 0)
(-0.061086 0.148108 0)
(0.422937 -0.447608 0)
(-0.281857 -0.260082 0)
(-0.19925 -0.135595 0)
(0.0135118 0.121834 0)
(-0.0240693 0.181947 0)
(0.0170758 0.236912 0)
(0.0428027 0.250002 0)
(0.0576674 0.233836 0)
(0.0639737 0.199295 0)
(0.0645651 0.155881 0)
(0.0606857 0.110531 0)
(0.0525017 0.0671808 0)
(0.0397546 0.0272511 0)
(0.0206629 -0.00944171 0)
(0.00121233 -0.0384612 0)
(-0.0161751 -0.0582424 0)
(-0.0294337 -0.0709264 0)
(-0.0357525 -0.0789138 0)
(-0.0331765 -0.0821638 0)
(-0.0259319 -0.0758504 0)
(-0.0210771 -0.0635725 0)
(-0.0211363 -0.0562374 0)
(-0.0211793 -0.0551693 0)
(-0.0187004 -0.0557635 0)
(-0.0151549 -0.0525128 0)
(-0.0139317 -0.045614 0)
(-0.0162486 -0.0392655 0)
(-0.0205321 -0.0358076 0)
(-0.0252382 -0.0351029 0)
(-0.0295276 -0.0359934 0)
(-0.0327549 -0.0366427 0)
(-0.0341308 -0.0347233 0)
(-0.0323291 -0.0279847 0)
(-0.0236239 -0.014959 0)
(-0.00556755 0.00408979 0)
(0.0100965 0.0204151 0)
(0.0242612 0.0190086 0)
(0.0408296 0.00837237 0)
(0.115034 0.0815502 0)
(-0.472125 0.261009 0)
(0.139288 -0.331486 0)
(-0.569841 -0.274288 0)
(-0.714596 -0.244756 0)
(-0.174047 -0.0249549 0)
(-0.190439 0.102699 0)
(-0.101206 0.18049 0)
(-0.0450274 0.213103 0)
(-0.00439342 0.2105 0)
(0.0240094 0.184626 0)
(0.0434797 0.148008 0)
(0.056685 0.108609 0)
(0.0632786 0.0711965 0)
(0.0628332 0.0373805 0)
(0.0550582 0.00725897 0)
(0.0395976 -0.0191958 0)
(0.0213658 -0.0399679 0)
(0.00180057 -0.0571551 0)
(-0.0132245 -0.0724014 0)
(-0.0168368 -0.0841359 0)
(-0.0131872 -0.0804082 0)
(-0.0109048 -0.0628895 0)
(-0.0177989 -0.0531775 0)
(-0.0239113 -0.0546259 0)
(-0.0242817 -0.058061 0)
(-0.0231297 -0.0535014 0)
(-0.0265016 -0.0424322 0)
(-0.0356673 -0.0329505 0)
(-0.0474085 -0.0281233 0)
(-0.0597987 -0.0268773 0)
(-0.0729284 -0.0272844 0)
(-0.0874919 -0.0268443 0)
(-0.104446 -0.0226009 0)
(-0.125023 -0.0116289 0)
(-0.149875 0.00803338 0)
(-0.176199 0.0340346 0)
(-0.20996 0.0626283 0)
(-0.25985 0.0902516 0)
(-0.317236 0.114783 0)
(-0.39507 0.13331 0)
(-0.702679 0.13997 0)
(-1.50245 -0.262567 0)
(-0.13534 -0.167238 0)
(-0.247417 -0.00573676 0)
(-0.171556 0.103977 0)
(-0.107522 0.153105 0)
(-0.0526403 0.164318 0)
(-0.00786375 0.151479 0)
(0.0285001 0.122521 0)
(0.0552851 0.0912774 0)
(0.0743486 0.0623441 0)
(0.0844708 0.0368773 0)
(0.0857664 0.0149398 0)
(0.0773385 -0.00418772 0)
(0.0619045 -0.0198295 0)
(0.0415672 -0.0334353 0)
(0.0206465 -0.0489814 0)
(0.00853235 -0.0691005 0)
(0.00220772 -0.0703276 0)
(8.2085e-05 -0.0443718 0)
(-0.0146253 -0.0324222 0)
(-0.0279396 -0.0373362 0)
(-0.0318282 -0.0448649 0)
(-0.0341391 -0.0395288 0)
(-0.0409101 -0.0270902 0)
(-0.0544127 -0.0191587 0)
(-0.0702345 -0.0159085 0)
(-0.0853281 -0.0149148 0)
(-0.100017 -0.0142167 0)
(-0.114784 -0.0117556 0)
(-0.129355 -0.00534176 0)
(-0.142542 0.00684616 0)
(-0.153585 0.0252977 0)
(-0.163547 0.0506435 0)
(-0.173338 0.0783531 0)
(-0.180812 0.0962041 0)
(-0.174631 0.0803703 0)
(-0.160449 -0.0158018 0)
(-0.285948 -0.233353 0)
(-0.256436 0.0441468 0)
(-0.0970641 -0.13898 0)
(-0.214101 -0.0330407 0)
(-0.196333 0.0482936 0)
(-0.14418 0.0929778 0)
(-0.0844294 0.109203 0)
(-0.0287541 0.107477 0)
(0.0250578 0.0876421 0)
(0.0619002 0.066506 0)
(0.0905897 0.0490795 0)
(0.109091 0.0355816 0)
(0.117764 0.0260695 0)
(0.117577 0.0201714 0)
(0.108487 0.014994 0)
(0.0941471 0.0061999 0)
(0.0760826 -0.0123397 0)
(0.0560806 -0.0474998 0)
(0.0257211 -0.0657997 0)
(0.00468763 -0.0141705 0)
(-0.0127563 0.0205921 0)
(-0.0285105 -0.00388706 0)
(-0.0429282 -0.0268365 0)
(-0.058439 -0.0109516 0)
(-0.0687353 0.0220411 0)
(-0.0782506 0.0431487 0)
(-0.0882257 0.0458145 0)
(-0.0957795 0.0437359 0)
(-0.101477 0.0405824 0)
(-0.106113 0.0373761 0)
(-0.109504 0.0352405 0)
(-0.110209 0.0362839 0)
(-0.105833 0.0438989 0)
(-0.095014 0.0602614 0)
(-0.077617 0.0834595 0)
(-0.054574 0.104542 0)
(-0.0255758 0.106628 0)
(0.125833 0.0286169 0)
(-0.203398 -0.158903 0)
(0.249788 -0.155038 0)
(-0.250698 -0.102539 0)
(-0.205261 0.0354501 0)
(-0.19215 -0.0644746 0)
(-0.241514 -0.0286783 0)
(-0.224523 0.00561843 0)
(-0.173579 0.0283817 0)
(-0.106968 0.0389225 0)
(-0.0404568 0.0403187 0)
(0.0413395 0.0180607 0)
(0.0850715 0.000150328 0)
(0.121877 -0.0163135 0)
(0.148099 -0.0319445 0)
(0.164284 -0.0474639 0)
(0.172843 -0.0636404 0)
(0.17574 -0.0816575 0)
(0.171988 -0.101877 0)
(0.159204 -0.127878 0)
(0.129312 -0.16399 0)
(0.0652913 -0.206656 0)
(0.0018282 -0.213621 0)
(-0.00065597 -0.20514 0)
(-0.00908035 -0.214028 0)
(-0.0516092 -0.215778 0)
(-0.094985 -0.198205 0)
(-0.114964 -0.177836 0)
(-0.117437 -0.161759 0)
(-0.1128 -0.149886 0)
(-0.108751 -0.146562 0)
(-0.106412 -0.143619 0)
(-0.104869 -0.135456 0)
(-0.101599 -0.120996 0)
(-0.0929277 -0.101315 0)
(-0.0748228 -0.0774065 0)
(-0.044816 -0.0493456 0)
(0.00400566 -0.0140068 0)
(0.0630649 0.0016 0)
(0.116856 -0.0163361 0)
(0.181765 -0.0746452 0)
(-0.135835 -0.158552 0)
)
;

boundaryField
{
    floor
    {
        type            noSlip;
    }
    ceiling
    {
        type            noSlip;
    }
    sWall
    {
        type            noSlip;
    }
    nWall
    {
        type            noSlip;
    }
    sideWalls
    {
        type            empty;
    }
    glass1
    {
        type            noSlip;
    }
    glass2
    {
        type            noSlip;
    }
    sun
    {
        type            noSlip;
    }
    heatsource1
    {
        type            noSlip;
    }
    heatsource2
    {
        type            noSlip;
    }
    Table_master
    {
        type            noSlip;
    }
    Table_slave
    {
        type            noSlip;
    }
    inlet
    {
        type            fixedValue;
        value           uniform (0.1 0 0);
    }
    outlet
    {
        type            zeroGradient;
    }
}


// ************************************************************************* //
