/*--------------------------------*- C++ -*----------------------------------*=========                 |
  \      /  F ield         | OpenFOAM: The Open Source CFD Toolbox
   \    /   O peration     | Website:  https://openfoam.org
    \  /    A nd           | Version:  6
     \/     M anipulation  |
\*---------------------------------------------------------------------------*/
FoamFile
{
    version     2.0;
    format      ascii;
    class       volScalarField;
    location    "1000";
    object      PMV;
}
// * * * * * * * * * * * * * * * * * * * * * * * * * * * * * * * * * * * * * //

dimensions      [0 0 0 0 0 0 0];

internalField   nonuniform List<scalar> 
459
(
1.677494243131928
1.463391579182381
1.4377273977309657
1.4150139667520651
1.3995172569870922
1.3897776990049577
1.3863722758381083
1.3892060564486133
1.3974867182425579
1.4128425017466975
1.4356857448986888
1.46810348968759
1.5116850997705933
1.5582141197584267
1.561556553192546
1.6226858790421856
1.6097939166279798
1.6050187652764443
1.606451330344182
1.60883890136395
1.6112264253934034
1.6078866820782276
1.603651765197432
1.6033321330050385
1.6043350552127817
1.6054011540606772
1.6073644758117136
1.6094026273980977
1.6123476507927377
1.6172048680098585
1.62665639707956
1.6350990280845379
1.6379634114663504
1.6489428773742132
1.6418461823096329
1.4848622855234366
1.4764785807456766
1.4558686258942544
1.4436337463590985
1.435914364370951
1.4334148030767497
1.434979161262992
1.438796730429815
1.4456246940438893
1.458555182493006
1.4796061046960072
1.510355350221528
1.548430670375951
1.5505707387930896
1.5500930133385233
1.5496152862305537
1.585006228445578
1.600720969604481
1.5969005811289827
1.5961937871999152
1.589995970485782
1.586031652113033
1.5843280451793311
1.5849876911193617
1.5856606925936605
1.5864697169734017
1.5866597288685056
1.5869278289459265
1.5878135320781184
1.588433986299564
1.5909571024210656
1.5981331912610617
1.6164788116698732
1.6217309667855613
1.6126910089298534
1.6856026768520824
1.4880502863262328
1.5121055238121008
1.5021463397522876
1.4995608505612241
1.4989215315614532
1.5002320654116643
1.500928351405848
1.4970169442062806
1.4903667537400476
1.4857467839426615
1.4891724050309658
1.5041135059318802
1.5307513912037531
1.5477043613001353
1.5496152862305537
1.5510484625924807
1.4952877948116778
1.536268472285389
1.5497133664117686
1.5584396565868646
1.5674597189680755
1.5739612695992942
1.5769118137294875
1.584300357140759
1.5893451862932635
1.5916059157968363
1.5920804787461527
1.5924913603118698
1.592335905717153
1.5908194130983841
1.5863852972303072
1.5876798572981305
1.604557807774485
1.5973546984610147
1.551961778427268
1.7617962626384498
1.4939727156013856
1.5397865359148186
1.5489543689287004
1.566002247431835
1.5815447991171125
1.5934542457158087
1.591752172731153
1.5689346456543682
1.5343167518714975
1.5029118974012279
1.4837706292316843
1.482501939462583
1.498974222828196
1.5279891904907474
1.5496152862305537
1.5397486947776204
1.4993731607792955
1.49462577236845
1.5215837473412201
1.5468852388882395
1.5668931654667373
1.5835108795545185
1.595218428130833
1.5988422425122215
1.5964306121907645
1.5954271227414751
1.5954370369532862
1.5961410523127628
1.5988229463707144
1.6048973514330251
1.6158569975291908
1.637405606858554
1.631823268409805
1.6177629916648752
1.5763852734975798
1.5084820709219242
1.8516183598995344
1.5150480641072233
1.566825531485799
1.5937183690063723
1.6394521092562337
1.691355475827414
1.7195663789422833
1.6838647514542864
1.6158574965179102
1.546546049672478
1.4943060692456769
1.4632825134744258
1.4549305147647793
1.4670698110448204
1.492573455418716
1.5197267000567363
1.5291343425890718
1.527043220608286
1.5347004526637777
1.558550183406703
1.5874238873420712
1.6127236304632568
1.633665873666046
1.6479881838011183
1.6556255024309523
1.6574331923194432
1.6567260859268322
1.6551619193136942
1.6534817591731634
1.651287857474519
1.6505654511159067
1.6515161399630516
1.6534034659100307
1.6406121070950768
1.6154184783839853
1.5582364160970266
1.5528638876109309
1.6790114524353266
1.6643713695516107
1.5038312479783817
1.9408865524769972
1.5577474707766161
1.6192058788045662
1.6465565470367711
1.7138346293244908
1.740552902558581
1.743481578220244
1.6663161126967316
1.590821585193011
1.519332722746934
1.4634591018835466
1.4316701730045949
1.426023288629795
1.4436906969667094
1.4770001239758916
1.5158094310171595
1.5479811841894666
1.5709560237031475
1.594962484203659
1.624874541904111
1.6413051011020687
1.6546708664604992
1.66564867622004
1.6737619911999302
1.6804430781145836
1.6856922038347617
1.6895095823762434
1.6918953718069467
1.6923725230022688
1.6914182183784592
1.6876009108159147
1.682829077248457
1.6743480482322446
1.6498252112952174
1.617011419207455
1.557089643687685
1.5546577097275958
1.5700582706731754
1.5684415799697509
1.5797583655819147
2.030408950277295
1.6528536899618445
1.769326704201532
1.7414025315512704
1.7374300518459558
1.7174240993279493
1.6692481632504363
1.6007403917167118
1.5238430280115927
1.4541496084872176
1.4065390062623289
1.387926311870842
1.3990942058404812
1.4343046788185856
1.4865710006601414
1.545338295270158
1.5930800753961758
1.6164788116698732
1.6374860192214709
1.6561028173068548
1.6708985387619628
1.6833062705064021
1.6923725230022688
1.6985752843423416
1.7038234761175457
1.7071630905898607
1.7095484604551219
1.7100255274951095
1.7095484604551219
1.7066860096992125
1.700960860185017
1.6942811054090139
1.6866465617443653
1.674704809951708
1.6354828899912068
1.5796857288544568
1.5580002288579808
1.547717528302194
1.5223966552397974
1.6058942176217055
2.1623140579954567
1.9690033961056228
1.9247202362778497
1.8255740512751446
1.7697504696144706
1.694289803684591
1.595975803219872
1.4920171970712233
1.4027054867759332
1.343745944740432
1.323010747094122
1.340333954846321
1.388446586880668
1.4581707484572901
1.5421211454628438
1.5935576449923918
1.6260280108641256
1.652761569702448
1.6737619911999302
1.6890324178143825
1.7004837495565202
1.7090713911011328
1.7152731115794058
1.720043396875253
1.7229054547705627
1.7243364516652477
1.7248134458664772
1.7243364516652477
1.7224284510495735
1.7190893586485623
1.714319026361078
1.7066860096992125
1.6990524040465647
1.689986744715757
1.6799658717338521
1.669944037475892
1.648873515571502
1.6375729995657555
1.5775609593741955
1.4957159287719728
2.3579326166670502
2.2255835813957305
2.058863024348124
1.8802812150433448
1.6907352697335203
1.4831937741620638
1.3125921462147392
1.2018344036070858
1.1582813273015564
1.174900054375147
1.2391184138926872
1.335928660292464
1.4507142648912665
1.5443601794234614
1.5964230243050972
1.6422598514842122
1.6713757861964544
1.6914182183784592
1.7062089265078972
1.7171812539105977
1.7248134458664772
1.7268372584320109
1.7249770791809438
1.7230079895502952
1.7204883636380939
1.7164518468946623
1.7114572111726485
1.705283414247011
1.6976717258710148
1.6880989517123557
1.6771347335283182
1.6655737287070203
1.6544847514164231
1.6408198350544598
1.6253107909288917
1.6116574122133898
1.6026779773519735
1.5975230692885367
1.5864125725193026
1.5560733188971556
-2.9769221248207405
-1.7824848152508885
-1.1135784237909059
-0.38848681306790084
0.15976265014787006
0.5871456521884545
0.9337903074030993
1.2086713845826564
1.3713222944714116
1.4956219020398631
1.575886374206785
1.628415189437819
1.6585789661351409
1.6736571709881298
1.6850836124972024
1.693154917818412
1.697964552464268
1.7001282497138128
1.7006511563464555
1.6993704591625878
1.6971720453781487
1.6938824508979387
1.6898020217691814
1.6852874674584102
1.6798571167279959
1.674619978951799
1.669359624524159
1.6644242087976164
1.6607050468135884
1.6581274767080196
1.6565249416573906
1.655593534049761
1.655376774614392
1.6575516371356378
1.6681405241655414
1.7028819147471836
1.7725471703022229
1.6174860508303275
-2.4631253492756304
-0.9990355506988262
0.03516697320714817
0.5620322573086506
0.8961315003712466
1.0990556105151916
1.2533866748096878
1.3733283522488768
1.4653381882594676
1.5350586935921433
1.5830830483433482
1.6161482028287188
1.6395451802132184
1.656159182359385
1.6672657480282886
1.67444550272477
1.678690474030525
1.6816315072696135
1.6831096747890464
1.6838625603828634
1.6837690069851792
1.6828101020086272
1.6814882008840353
1.6803364324702967
1.6784678212768254
1.6765430099011138
1.6748309830616563
1.674294652610055
1.6750388884032599
1.678448746765561
1.6858709895962078
1.6972771106438316
1.7093951311087499
1.7197187195371995
1.7316853433470691
1.7694883293988066
1.7045481929628392
1.6557229932928057
-0.8735128354325447
-1.0137054455616674
-0.8922970219517096
0.35533325032615554
0.8719509147423743
1.0909726609535935
1.2266708339758512
1.3312369693608885
1.4154925893505204
1.484148721528541
1.5398035212831869
1.5825638320564006
1.6134551845787635
1.6348993986692342
1.6482975141444973
1.655909309424989
1.659391614001016
1.660618926367551
1.6608287515592883
1.660517406448716
1.660416548395267
1.6608372237642068
1.6610576423410073
1.6615323136693165
1.6622384892355373
1.662703706271142
1.664053577184914
1.6660289214019919
1.6690233456897696
1.6735654981382084
1.6803293637903725
1.6920635327910256
1.7130639692096379
1.751104242385113
1.7801279829903291
1.7863248652691153
1.753548263839415
1.7120291504591005
1.6698908824453058
1.6740799548897436
)
;

boundaryField
{
    ".*"
    {
        type            zeroGradient;
    }
}


// ************************************************************************* //
