// -*- C++ -*-
// File generated by PyFoam - sorry for the ugliness

FoamFile
{
 version 2.0;
 format ascii;
 class volScalarField;
 location "1000";
 object T;
}

dimensions [ 0 0 0 1 0 0 0 ];

internalField nonuniform List<scalar> 459
(
  302.729
  302.449
  302.434
  302.43
  302.426
  302.421
  302.416
  302.41
  302.401
  302.391
  302.38
  302.371
  302.366
  302.365
  302.372
  302.5
  302.473
  302.463
  302.466
  302.471
  302.476
  302.481
  302.485
  302.49
  302.495
  302.499
  302.504
  302.508
  302.512
  302.516
  302.521
  302.526
  302.532
  302.555
  302.914
  302.491
  302.462
  302.463
  302.465
  302.464
  302.461
  302.453
  302.437
  302.414
  302.39
  302.369
  302.355
  302.349
  302.349
  302.348
  302.347
  302.502
  302.454
  302.446
  302.449
  302.455
  302.461
  302.463
  302.465
  302.466
  302.468
  302.469
  302.47
  302.472
  302.473
  302.476
  302.48
  302.487
  302.498
  302.536
  303.109
  302.544
  302.497
  302.504
  302.516
  302.525
  302.528
  302.519
  302.493
  302.454
  302.411
  302.375
  302.352
  302.342
  302.343
  302.347
  302.35
  302.428
  302.426
  302.435
  302.448
  302.461
  302.471
  302.47
  302.47
  302.47
  302.47
  302.469
  302.469
  302.469
  302.469
  302.47
  302.473
  302.477
  302.487
  302.528
  303.305
  302.611
  302.535
  302.547
  302.573
  302.598
  302.613
  302.605
  302.564
  302.5
  302.434
  302.38
  302.347
  302.335
  302.338
  302.347
  302.357
  302.373
  302.392
  302.418
  302.444
  302.468
  302.488
  302.503
  302.516
  302.526
  302.536
  302.544
  302.55
  302.555
  302.559
  302.561
  302.561
  302.531
  302.506
  302.495
  302.529
  303.496
  302.698
  302.583
  302.589
  302.626
  302.669
  302.703
  302.69
  302.628
  302.533
  302.444
  302.377
  302.338
  302.326
  302.333
  302.351
  302.371
  302.395
  302.423
  302.454
  302.485
  302.512
  302.535
  302.553
  302.569
  302.582
  302.592
  302.599
  302.604
  302.605
  302.603
  302.598
  302.589
  302.566
  302.534
  302.51
  302.526
  302.618
  302.661
  302.668
  303.668
  302.811
  302.668
  302.654
  302.691
  302.747
  302.78
  302.742
  302.652
  302.539
  302.434
  302.358
  302.318
  302.312
  302.33
  302.361
  302.396
  302.432
  302.469
  302.505
  302.539
  302.567
  302.59
  302.607
  302.621
  302.632
  302.64
  302.645
  302.646
  302.644
  302.636
  302.626
  302.613
  302.591
  302.56
  302.53
  302.527
  302.566
  302.584
  302.624
  303.83
  302.991
  302.853
  302.825
  302.84
  302.877
  302.847
  302.752
  302.62
  302.484
  302.374
  302.305
  302.281
  302.294
  302.334
  302.385
  302.438
  302.487
  302.531
  302.57
  302.601
  302.627
  302.646
  302.659
  302.67
  302.677
  302.682
  302.683
  302.682
  302.676
  302.664
  302.65
  302.634
  302.612
  302.584
  302.555
  302.542
  302.553
  302.566
  302.599
  304.062
  303.438
  303.289
  303.205
  303.139
  303.021
  302.849
  302.653
  302.469
  302.326
  302.24
  302.213
  302.234
  302.288
  302.362
  302.439
  302.507
  302.563
  302.607
  302.639
  302.663
  302.681
  302.694
  302.704
  302.71
  302.713
  302.714
  302.713
  302.709
  302.702
  302.692
  302.676
  302.66
  302.641
  302.62
  302.599
  302.593
  302.613
  302.639
  302.792
  304.395
  304.1
  303.802
  303.493
  303.15
  302.759
  302.421
  302.177
  302.04
  301.999
  302.034
  302.119
  302.226
  302.336
  302.445
  302.541
  302.602
  302.644
  302.675
  302.698
  302.714
  302.726
  302.733
  302.738
  302.741
  302.741
  302.74
  302.738
  302.735
  302.731
  302.729
  302.73
  302.733
  302.743
  302.762
  302.792
  302.834
  302.875
  302.9
  302.963
  293.394
  295.374
  297.288
  298.723
  299.773
  300.568
  301.176
  301.634
  301.974
  302.234
  302.402
  302.512
  302.593
  302.65
  302.687
  302.713
  302.731
  302.744
  302.754
  302.76
  302.764
  302.766
  302.767
  302.768
  302.768
  302.769
  302.77
  302.771
  302.773
  302.776
  302.782
  302.793
  302.811
  302.836
  302.866
  302.894
  302.914
  302.935
  294.567
  297.009
  299.181
  300.283
  300.985
  301.482
  301.843
  302.117
  302.323
  302.476
  302.579
  302.648
  302.695
  302.727
  302.748
  302.762
  302.771
  302.778
  302.782
  302.785
  302.787
  302.788
  302.789
  302.791
  302.792
  302.793
  302.794
  302.796
  302.798
  302.801
  302.806
  302.814
  302.826
  302.843
  302.864
  302.886
  302.884
  302.916
  298.258
  298.182
  298.177
  300.491
  301.421
  301.824
  302.073
  302.262
  302.41
  302.526
  302.616
  302.682
  302.728
  302.76
  302.781
  302.795
  302.804
  302.81
  302.814
  302.816
  302.817
  302.818
  302.818
  302.818
  302.818
  302.817
  302.817
  302.817
  302.817
  302.817
  302.817
  302.818
  302.82
  302.824
  302.83
  302.843
  302.854
  302.862
  302.865
  302.904
)
;

boundaryField
{
  floor
  {
    type wallHeatTransfer;
    Tinf uniform 305.2;
    alphaWall uniform 0.24;
    value nonuniform List<scalar> 29
(
  302.638
  302.987
  302.903
  302.862
  302.867
  302.882
  302.9
  302.923
  302.948
  302.973
  302.997
  303.02
  303.042
  303.064
  303.084
  303.105
  303.126
  303.149
  303.166
  303.217
  303.217
  303.095
  303.035
  303.003
  302.638
  302.987
  302.965
  302.72
  302.6
)
;
  }
  ceiling
  {
    type wallHeatTransfer;
    Tinf uniform 303.2;
    alphaWall uniform 0.24;
    value nonuniform List<scalar> 43
(
  298.582
  298.495
  298.48
  300.645
  301.526
  301.908
  302.143
  302.323
  302.465
  302.576
  302.663
  302.729
  302.776
  302.809
  302.832
  302.847
  302.858
  302.865
  302.87
  302.873
  302.874
  302.874
  302.874
  302.873
  302.872
  302.871
  302.87
  302.868
  302.867
  302.865
  302.863
  302.863
  302.862
  302.864
  302.867
  302.877
  302.886
  302.894
  302.898
  302.936
  304.342
  304.065
  295.079
)
;
  }
  sWall
  {
    type wallHeatTransfer;
    Tinf uniform 315.2;
    alphaWall uniform 0.36;
    value uniform 299.874;
  }
  nWall
  {
    type wallHeatTransfer;
    Tinf uniform 307.2;
    alphaWall uniform 0.36;
    value nonuniform List<scalar> 6
(
  303.472
  303.411
  303.317
  303.536
  303.514
  303.556
)
;
  }
  sideWalls
  {
    type empty;
  }
  glass1
  {
    type wallHeatTransfer;
    Tinf uniform 315.2;
    alphaWall uniform 4.3;
    value nonuniform List<scalar> 9
(
  311.15
  310.462
  310.035
  309.713
  309.447
  309.208
  309.039
  309.126
  309.377
)
;
  }
  glass2
  {
    type wallHeatTransfer;
    Tinf uniform 307.2;
    alphaWall uniform 4.3;
    value nonuniform List<scalar> 2
(
  305.457
  305.596
)
;
  }
  sun
  {
    type wallHeatTransfer;
    Tinf uniform 305.2;
    alphaWall uniform 0.24;
    value nonuniform List<scalar> 14
(
  302.981
  302.71
  302.693
  302.68
  302.668
  302.656
  302.645
  302.633
  302.621
  302.61
  302.602
  302.599
  302.603
  302.616
)
;
  }
  heatsource1
  {
    type fixedGradient;
    gradient uniform 0;
  }
  heatsource2
  {
    type fixedGradient;
    gradient uniform 0;
  }
  Table_master
  {
    type zeroGradient;
  }
  Table_slave
  {
    type zeroGradient;
  }
  inlet
  {
    type fixedValue;
    value uniform 290.15;
  }
  outlet
  {
    type zeroGradient;
  }
} 	// ************************************************************************* //

