/*--------------------------------*- C++ -*----------------------------------*\
  =========                 |
  \\      /  F ield         | OpenFOAM: The Open Source CFD Toolbox
   \\    /   O peration     | Website:  https://openfoam.org
    \\  /    A nd           | Version:  6
     \\/     M anipulation  |
\*---------------------------------------------------------------------------*/
FoamFile
{
    version     2.0;
    format      ascii;
    class       surfaceScalarField;
    location    "500";
    object      phi;
}
// * * * * * * * * * * * * * * * * * * * * * * * * * * * * * * * * * * * * * //

dimensions      [1 0 -1 0 0 0 0];

internalField   nonuniform List<scalar> 
852
(
-0.00243013
0.00249457
-0.00255438
0.000124307
-0.00274547
0.000191152
-0.00299473
0.00024932
-0.00323521
0.000240543
-0.00343426
0.000199131
-0.00357004
0.000135855
-0.00362297
5.3016e-05
-0.0035731
-4.97837e-05
-0.00339887
-0.000174145
-0.00308204
-0.000316728
-0.00261222
-0.00046972
-0.00197382
-0.000638287
-0.00111114
-0.000862574
-0.0011086
-0.000542375
0.000546459
-0.000394964
-0.000147381
-0.000243738
-0.000151208
-0.000263819
2.00793e-05
-0.000433746
0.000169866
-0.000663121
0.000229293
-0.000819815
0.000156639
-0.00087885
5.90097e-05
-0.000884151
5.29708e-06
-0.000856843
-2.72938e-05
-0.00080484
-5.19707e-05
-0.000727643
-7.7144e-05
-0.000633283
-9.42839e-05
-0.000573904
-5.92746e-05
-0.000535258
-3.85263e-05
-0.000256906
-0.000278237
0.000246007
-0.000502834
0.000627515
-0.000381414
0.000631417
-0.00176234
0.00442244
-0.00228547
0.000647503
-0.00266032
0.000566065
-0.00296765
0.000556728
-0.00323694
0.000509909
-0.00345827
0.000420543
-0.00361716
0.000294841
-0.00369816
0.000134117
-0.00368596
-6.18805e-05
-0.00356662
-0.000293374
-0.0033252
-0.000558035
-0.0029492
-0.000845592
-0.00243584
-0.00115153
-0.00183511
-0.00146317
-0.00124533
-0.00169824
0.000297487
-0.00154274
0.000297524
0.000241163
0.00031614
-0.000123628
0.000217449
-0.000365781
9.09596e-05
-0.00037623
3.05322e-05
-0.000284346
7.79754e-05
-0.000312206
0.000257118
-0.000409385
0.000253775
-0.00044057
9.01606e-05
-0.000454466
1.91693e-05
-0.00045748
-2.42884e-05
-0.000450345
-5.90976e-05
-0.000432504
-9.49544e-05
-0.000402561
-0.00012416
-0.000387905
-7.38082e-05
-0.000396967
-2.9324e-05
-0.000259023
-0.000416103
-0.000148071
-0.000613737
-0.000162996
-0.000366399
0.000479688
-0.00130848
0.00597557
-0.0019962
0.0013353
-0.00244727
0.00101721
-0.00278443
0.000893967
-0.00307365
0.000799212
-0.00331719
0.000664172
-0.00350641
0.000484166
-0.00362959
0.000257403
-0.00367486
-1.65037e-05
-0.00363472
-0.000333393
-0.00350864
-0.000683984
-0.00330272
-0.00105138
-0.00303621
-0.00141788
-0.00274686
-0.00175238
-0.00246894
-0.00197601
-0.00204391
-0.00196762
-0.00174625
-0.000904999
0.0012356
-0.00113774
0.000450241
-0.00120273
0.000156005
-0.00114257
-2.95788e-05
-0.000914009
-0.000150521
-0.000363202
-0.000293618
-0.000109273
-1.89617e-05
3.60406e-07
-2.37756e-05
-8.27227e-05
-0.000177522
-0.000301476
-0.000374937
-0.000403839
-0.000141622
-0.000678268
-0.000676055
-7.92264e-05
-0.00102253
-1.97762e-05
-0.000527209
-0.000981093
0.00726572
-0.0017218
0.00207608
-0.00214833
0.00144381
-0.00247623
0.00122195
-0.00275544
0.00107851
-0.0029931
0.000901926
-0.00318761
0.000678781
-0.00333221
0.000402109
-0.00341795
6.93492e-05
-0.00344111
-0.000310111
-0.00341773
-0.000707235
-0.00337867
-0.00109031
-0.00336469
-0.00143171
-0.00341912
-0.00169779
-0.00355908
-0.00183589
-0.00375788
-0.00176866
-0.00423408
-0.00126991
-0.00372188
-0.000498121
-0.00279523
0.000309069
-0.00272686
0.000381992
-0.00275379
0.000183081
-0.00278135
-1.87526e-06
-0.00278093
-0.000150794
-0.00284212
-0.000232286
-0.00261629
-0.000225845
-0.0023454
-0.000270933
-0.00199618
-0.000349271
-0.00155659
-0.000439654
-0.00102803
-0.000528641
-0.000430597
-0.000597511
0.000191743
-0.00062241
0.000762216
-0.000570534
0.00126871
-0.000506542
0.00111242
-0.000521881
0.00121577
-0.000182472
0.00104222
0.000153877
0.000532435
-0.000732862
0.0083623
-0.00147822
0.00282151
-0.00178699
0.00175266
-0.00206234
0.00149738
-0.00229375
0.00131
-0.00247987
0.00108815
-0.00262685
0.000825849
-0.00273592
0.000511291
-0.00280315
0.000136679
-0.00282406
-0.000289086
-0.00282178
-0.000709386
-0.00283877
-0.0010732
-0.00291108
-0.00135927
-0.00305702
-0.0015517
-0.00327148
-0.00162127
-0.0035323
-0.00150767
-0.00368022
-0.00112182
-0.0036013
-0.000576863
-0.00318148
-0.000110584
-0.00283937
4.00439e-05
-0.00265371
-2.42783e-06
-0.0025584
-9.70377e-05
-0.00251095
-0.000198105
-0.00246676
-0.000276355
-0.00234737
-0.00034513
-0.00217423
-0.000443983
-0.00194735
-0.000576084
-0.00166304
-0.00072391
-0.00133392
-0.000857701
-0.000988007
-0.000943334
-0.00065438
-0.000955916
-0.000333348
-0.00089141
-5.17359e-05
-0.000787957
0.00011543
-0.000688816
0.000477019
-0.000543789
0.00103196
-0.000400719
0.00186729
-0.000302508
0.00172532
0.00014209
-2.41324e-05
0.0017495
2.74757e-05
-0.000679601
0.00945341
-0.00137289
0.00351488
-0.00137917
0.00175903
-0.00153062
0.00164891
-0.00170604
0.00148552
-0.00181452
0.00119671
-0.00187075
0.000882174
-0.00189326
0.000533906
-0.00188464
0.000128161
-0.00184596
-0.000327657
-0.00181288
-0.000742353
-0.00182744
-0.00105852
-0.00191291
-0.00127368
-0.00207061
-0.00139388
-0.00228185
-0.00140989
-0.00249955
-0.00128981
-0.00261074
-0.00101048
-0.00255154
-0.000635896
-0.00234351
-0.000318456
-0.00214201
-0.000161301
-0.00201315
-0.000131137
-0.00194957
-0.000160479
-0.00193162
-0.000215922
-0.00192769
-0.000280181
-0.00191153
-0.000361206
-0.00187793
-0.000477529
-0.00182462
-0.000629354
-0.00175328
-0.000795198
-0.00167672
-0.000934183
-0.00161512
-0.00100479
-0.00158095
-0.000989877
-0.00156727
-0.000904811
-0.00155858
-0.000796295
-0.0015278
-0.000719157
-0.00135245
-0.000718595
-0.000858883
-0.000893635
0.000130048
-0.00129068
0.0016101
-0.00133705
0.00311203
0.00024806
0.00319377
-0.00092677
0.010835
-0.00112859
0.00371678
-0.000599949
0.00123047
-0.000608
0.00165705
-0.000826566
0.00170418
-0.000898254
0.0012685
-0.000853686
0.000837706
-0.000767075
0.000447396
-0.000646309
7.49889e-06
-0.000530193
-0.000443669
-0.000474537
-0.000797905
-0.000499317
-0.00103364
-0.00060678
-0.00116611
-0.000784185
-0.00121636
-0.00100255
-0.00119141
-0.00121107
-0.00108116
-0.00134148
-0.000879945
-0.00135365
-0.000623582
-0.00127495
-0.000397018
-0.00117999
-0.000256118
-0.00111656
-0.000194429
-0.00109539
-0.000181528
-0.00111516
-0.000196032
-0.00116816
-0.000227089
-0.00125054
-0.000278749
-0.00136512
-0.00036291
-0.00151406
-0.000480389
-0.00170016
-0.00060905
-0.00193101
-0.000703227
-0.00221379
-0.000721796
-0.00253937
-0.000663965
-0.00288116
-0.000562608
-0.00320466
-0.000472294
-0.00347308
-0.000450164
-0.00363523
-0.000555825
-0.00364473
-0.00088349
-0.00341426
-0.00152051
-0.00249843
-0.00225225
-0.000335269
-0.00191447
0.00292395
0.00177808
0.00956533
0.00226163
0.0032333
0.00212842
0.00136377
0.00163111
0.00215446
0.00116539
0.00217
0.000963286
0.00147071
0.000944849
0.000856247
0.00103016
0.000362191
0.00115603
-0.000118266
0.00122364
-0.000511169
0.00119843
-0.000772594
0.00108986
-0.000924974
0.000915915
-0.000992057
0.000692463
-0.00099281
0.000441367
-0.000940206
0.000200403
-0.000840092
1.74024e-05
-0.00069683
-7.71165e-05
-0.000528945
-9.80425e-05
-0.000375971
-8.85476e-05
-0.000265491
-8.25408e-05
-0.000200314
-9.58441e-05
-0.000168108
-0.000136078
-0.00015569
-0.000209749
-0.000153323
-0.000330214
-0.000158212
-0.000519473
-0.000173607
-0.000798496
-0.000201339
-0.00117761
-0.000229883
-0.0016564
-0.000224304
-0.00222801
-0.000149936
-0.00286125
-3.03639e-05
-0.0035171
9.36619e-05
-0.00418024
0.000191271
-0.00483991
0.000209933
-0.00547056
7.52321e-05
-0.00612567
-0.000227981
-0.00701814
-0.000627657
-0.00807574
-0.00119427
-0.00744153
-0.0025483
-0.00422844
0.0101272
0.0133548
0.0108373
0.00388136
0.00806592
0.00492587
0.00651316
0.00372283
0.005509
0.00247496
0.00482569
0.00153964
0.00435227
0.000835706
0.00393946
0.000294631
0.00354213
-0.000113744
0.00317413
-0.000404505
0.00283306
-0.000583812
0.00251104
-0.000669938
0.00220197
-0.00068364
0.00190565
-0.000643793
0.00163274
-0.000567077
0.00140426
-0.000468253
0.00123815
-0.000362727
0.00113047
-0.000268181
0.00106147
-0.000196383
0.00100982
-0.000148555
0.000961198
-0.000119378
0.000906882
-0.000101272
0.000840395
-8.67439e-05
0.00075266
-7.03961e-05
0.000629026
-4.991e-05
0.000452855
-2.51179e-05
0.000219514
3.52002e-06
-4.51414e-05
4.04954e-05
-0.000296537
0.000101675
-0.000519069
0.000192445
-0.000721148
0.000296055
-0.000902522
0.00037299
-0.00106659
0.000374357
-0.00124429
0.00025327
-0.00144255
-2.94021e-05
-0.00168866
-0.000381254
-0.00202085
-0.000861772
-0.00200913
-0.00255971
-0.00593343
0.00111012
0.00400059
0.0031435
0.00289255
0.00444827
0.00241813
0.0048335
0.0020898
0.00489131
0.00148191
0.00484787
0.00087923
0.00472932
0.000413268
0.00453238
8.32727e-05
0.00427293
-0.000144965
0.00397887
-0.000289669
0.00367428
-0.000365262
0.0033758
-0.00038507
0.00309469
-0.000362594
0.00283939
-0.000311676
0.00261762
-0.000246386
0.00243527
-0.00018028
0.0022917
-0.000124504
0.00217999
-8.45733e-05
0.00208986
-5.83142e-05
0.00201306
-4.2474e-05
0.00194395
-3.20666e-05
0.00187937
-2.20641e-05
0.00181769
-8.63013e-06
0.00175702
1.08379e-05
0.0016929
3.90693e-05
0.00161788
7.86096e-05
0.00152971
0.000128734
0.00144281
0.000188665
0.00137971
0.00025566
0.00135679
0.000319145
0.0013752
0.000354812
0.00142286
0.000326979
0.00148202
0.000194428
0.00152573
-7.27772e-05
0.00161239
-0.00046757
0.00181661
-0.00106565
0.00154079
-0.00228357
-0.004325
-0.000565831
0.00456803
0.00170381
0.000622955
0.00290192
0.00122008
0.00367367
0.00131812
0.0042156
0.000940046
0.00453001
0.000564893
0.00465528
0.00028807
0.00464252
9.61111e-05
0.00452821
-3.0579e-05
0.00434681
-0.000108183
0.00413105
-0.000149415
0.00390718
-0.000161122
0.00369503
-0.000150345
0.00350761
-0.000124173
0.00335112
-8.97974e-05
0.00322523
-5.42845e-05
0.00312443
-2.36105e-05
0.00304115
-1.19044e-06
0.00296936
1.35842e-05
0.00290516
2.18334e-05
0.00284687
2.63331e-05
0.00279505
2.98543e-05
0.00275155
3.49679e-05
0.00271818
4.43062e-05
0.00269727
6.00595e-05
0.00269281
8.31493e-05
0.00270833
0.000113281
0.00274845
0.000148619
0.00281898
0.000185199
0.00292272
0.000215507
0.00305116
0.000226496
0.00317873
0.000199587
0.00326047
0.000112915
0.00323993
-5.1975e-05
0.00307662
-0.00030398
0.00267445
-0.00066319
0.00162862
-0.00123746
-0.00261579
-0.00442481
-0.00532048
-0.000750434
-0.000129151
0.00108758
0.00240173
0.00333737
0.00389748
0.0041804
0.00427102
0.00423462
0.00412031
0.00396449
0.0037967
0.00363945
0.00350816
0.00341108
0.0033494
0.00331833
0.00330969
0.00331591
0.00333054
0.00334989
0.00337305
0.00340165
0.00343999
0.00349454
0.00357271
0.00368165
0.00382666
0.00400908
0.00422267
0.0044481
0.00464737
0.0047606
0.00470943
0.00440672
0.00374525
0.00250995
)
;

boundaryField
{
    floor
    {
        type            calculated;
        value           nonuniform List<scalar> 
29
(
0
0
0
0
0
0
0
0
0
0
0
0
0
0
0
0
0
0
0
0
-3.79902e-06
-1.11608e-05
-1.54796e-05
-1.72938e-05
-2.42958e-06
-4.04847e-06
-1.07974e-05
-1.44109e-05
-1.39439e-05
)
;
    }
    ceiling
    {
        type            calculated;
        value           nonuniform List<scalar> 
43
(
-1.86452e-06
-2.16363e-06
-1.98712e-06
1.72055e-06
3.4146e-06
4.02818e-06
4.47063e-06
4.85801e-06
5.2202e-06
5.56846e-06
5.89998e-06
6.20473e-06
6.48906e-06
6.75335e-06
6.99412e-06
7.20464e-06
7.37573e-06
7.49702e-06
7.55877e-06
7.55372e-06
7.4707e-06
7.31449e-06
7.09213e-06
6.81024e-06
6.47296e-06
6.07901e-06
5.61904e-06
5.07793e-06
4.43918e-06
3.69629e-06
2.86758e-06
2.00144e-06
1.16514e-06
4.22079e-07
-1.84382e-07
-6.58882e-07
-1.10141e-06
-1.52865e-06
-1.95348e-06
-1.95249e-06
8.37475e-06
5.76557e-06
-1.59522e-06
)
;
    }
    sWall
    {
        type            calculated;
        value           uniform -0.00016658;
    }
    nWall
    {
        type            calculated;
        value           nonuniform List<scalar> 6(-5.16088e-05 -5.38334e-05 -6.51292e-05 -6.73418e-05 -8.03144e-05 -0.000103634);
    }
    sideWalls
    {
        type            empty;
        value           nonuniform 0();
    }
    glass1
    {
        type            calculated;
        value           nonuniform List<scalar> 9(-6.43887e-05 -0.000165476 -0.000244601 -0.000309002 -0.000363666 -0.000411466 -0.00045481 -0.000508309 -0.000570215);
    }
    glass2
    {
        type            calculated;
        value           nonuniform List<scalar> 2(-0.000288723 -0.000303831);
    }
    sun
    {
        type            calculated;
        value           uniform 0;
    }
    heatsource1
    {
        type            calculated;
        value           nonuniform List<scalar> 3(2.04978e-07 2.05151e-07 2.05881e-07);
    }
    heatsource2
    {
        type            calculated;
        value           nonuniform List<scalar> 4(5.12525e-08 5.14357e-08 0 0);
    }
    Table_master
    {
        type            calculated;
        value           nonuniform List<scalar> 9(-1.54663e-07 -1.54795e-07 -1.5485e-07 -1.5487e-07 -1.54871e-07 -1.54857e-07 -1.54816e-07 -1.54732e-07 -1.54543e-07);
    }
    Table_slave
    {
        type            calculated;
        value           nonuniform List<scalar> 9(1.53319e-07 1.53392e-07 1.53477e-07 1.5359e-07 1.53736e-07 1.53916e-07 1.5406e-07 1.54028e-07 1.53861e-07);
    }
    inlet
    {
        type            calculated;
        value           uniform -0.00122934;
    }
    outlet
    {
        type            calculated;
        value           nonuniform List<scalar> 2(0.00459328 0.000897864);
    }
}


// ************************************************************************* //
