// -*- C++ -*-
// File generated by PyFoam - sorry for the ugliness

FoamFile
{
 version 2.0;
 format ascii;
 class volScalarField;
 location "500";
 object T;
}

dimensions [ 0 0 0 1 0 0 0 ];

internalField nonuniform List<scalar> 459
(
  303.03
  302.686
  302.672
  302.672
  302.672
  302.672
  302.672
  302.671
  302.67
  302.668
  302.663
  302.654
  302.642
  302.626
  302.61
  302.334
  302.313
  302.309
  302.305
  302.275
  302.215
  302.162
  302.13
  302.11
  302.098
  302.094
  302.098
  302.113
  302.143
  302.184
  302.226
  302.233
  302.197
  302.189
  303.275
  302.755
  302.717
  302.723
  302.731
  302.738
  302.744
  302.748
  302.751
  302.75
  302.742
  302.726
  302.7
  302.663
  302.617
  302.569
  302.506
  302.332
  302.305
  302.288
  302.272
  302.25
  302.205
  302.148
  302.107
  302.077
  302.056
  302.043
  302.041
  302.056
  302.104
  302.191
  302.284
  302.255
  302.205
  302.18
  303.503
  302.841
  302.774
  302.786
  302.804
  302.822
  302.838
  302.85
  302.858
  302.861
  302.852
  302.83
  302.79
  302.734
  302.663
  302.589
  302.532
  302.342
  302.333
  302.33
  302.327
  302.319
  302.289
  302.154
  302.117
  302.093
  302.072
  302.053
  302.037
  302.031
  302.073
  302.207
  302.376
  302.29
  302.253
  302.261
  303.712
  302.938
  302.835
  302.851
  302.882
  302.914
  302.944
  302.97
  302.989
  302.998
  302.994
  302.969
  302.921
  302.851
  302.76
  302.656
  302.552
  302.478
  302.439
  302.474
  302.507
  302.53
  302.544
  302.553
  302.559
  302.559
  302.556
  302.55
  302.542
  302.531
  302.518
  302.502
  302.488
  302.468
  302.433
  302.399
  302.38
  303.904
  303.044
  302.901
  302.91
  302.953
  302.999
  303.046
  303.089
  303.125
  303.148
  303.154
  303.138
  303.096
  303.03
  302.944
  302.847
  302.752
  302.675
  302.627
  302.625
  302.642
  302.655
  302.657
  302.655
  302.648
  302.638
  302.623
  302.605
  302.583
  302.563
  302.545
  302.529
  302.515
  302.499
  302.479
  302.454
  302.428
  302.403
  302.374
  302.437
  304.069
  303.162
  302.989
  302.968
  303.011
  303.065
  303.123
  303.181
  303.235
  303.277
  303.3
  303.299
  303.272
  303.22
  303.145
  303.057
  302.967
  302.89
  302.835
  302.804
  302.791
  302.783
  302.774
  302.762
  302.746
  302.723
  302.695
  302.66
  302.626
  302.598
  302.58
  302.571
  302.568
  302.568
  302.574
  302.589
  302.608
  302.582
  302.46
  302.441
  304.203
  303.338
  303.167
  303.085
  303.082
  303.124
  303.18
  303.241
  303.304
  303.364
  303.404
  303.422
  303.415
  303.384
  303.33
  303.258
  303.177
  303.098
  303.034
  302.986
  302.954
  302.93
  302.911
  302.89
  302.865
  302.832
  302.787
  302.734
  302.684
  302.649
  302.638
  302.646
  302.665
  302.693
  302.726
  302.762
  302.792
  302.8
  302.755
  302.472
  304.427
  303.761
  303.597
  303.44
  303.326
  303.284
  303.292
  303.327
  303.381
  303.436
  303.476
  303.5
  303.508
  303.5
  303.474
  303.428
  303.365
  303.294
  303.229
  303.174
  303.13
  303.094
  303.064
  303.037
  303.007
  302.968
  302.913
  302.843
  302.773
  302.726
  302.716
  302.736
  302.772
  302.814
  302.855
  302.893
  302.927
  302.955
  302.976
  302.982
  304.733
  304.453
  304.26
  304.064
  303.87
  303.735
  303.652
  303.608
  303.588
  303.577
  303.575
  303.575
  303.575
  303.571
  303.559
  303.536
  303.501
  303.454
  303.403
  303.352
  303.305
  303.264
  303.227
  303.193
  303.16
  303.123
  303.078
  303.018
  302.94
  302.866
  302.818
  302.793
  302.789
  302.801
  302.824
  302.857
  302.9
  302.955
  303.024
  303.161
  302.72
  303.699
  303.774
  303.75
  303.716
  303.69
  303.672
  303.66
  303.65
  303.64
  303.631
  303.622
  303.611
  303.597
  303.579
  303.554
  303.523
  303.488
  303.45
  303.413
  303.377
  303.342
  303.308
  303.274
  303.237
  303.194
  303.14
  303.077
  303.011
  302.952
  302.906
  302.877
  302.864
  302.866
  302.885
  302.917
  302.965
  303.044
  302.916
  303.575
  303.68
  303.703
  303.701
  303.693
  303.684
  303.676
  303.669
  303.661
  303.652
  303.644
  303.634
  303.624
  303.612
  303.598
  303.582
  303.562
  303.54
  303.515
  303.489
  303.462
  303.433
  303.404
  303.373
  303.338
  303.298
  303.252
  303.199
  303.143
  303.089
  303.043
  303.009
  302.989
  302.984
  302.993
  303.016
  303.078
  303.072
  303.021
  303.019
  303.486
  303.642
  303.67
  303.674
  303.672
  303.668
  303.663
  303.658
  303.652
  303.646
  303.639
  303.631
  303.622
  303.613
  303.603
  303.592
  303.58
  303.567
  303.553
  303.538
  303.521
  303.504
  303.486
  303.466
  303.445
  303.421
  303.394
  303.363
  303.329
  303.292
  303.256
  303.223
  303.196
  303.171
  303.147
  303.123
  303.127
)
;

boundaryField
{
  floor
  {
    type wallHeatTransfer;
    Tinf uniform 305.2;
    alphaWall uniform 0.24;
    value nonuniform List<scalar> 29
(
  302.934
  302.873
  302.789
  302.882
  302.974
  303.027
  303.056
  303.068
  303.064
  303.046
  303.012
  302.966
  302.912
  302.857
  302.807
  302.767
  302.732
  302.691
  302.641
  302.693
  302.693
  302.674
  302.673
  302.709
  302.934
  302.873
  302.811
  302.725
  302.793
)
;
  }
  ceiling
  {
    type wallHeatTransfer;
    Tinf uniform 303.2;
    alphaWall uniform 0.24;
    value nonuniform List<scalar> 43
(
  303.079
  303.029
  303.026
  303.473
  303.62
  303.644
  303.646
  303.642
  303.636
  303.629
  303.621
  303.614
  303.606
  303.597
  303.588
  303.579
  303.568
  303.558
  303.546
  303.534
  303.522
  303.508
  303.494
  303.48
  303.464
  303.448
  303.431
  303.413
  303.393
  303.37
  303.344
  303.314
  303.282
  303.25
  303.221
  303.196
  303.174
  303.152
  303.131
  303.134
  304.666
  304.406
  302.926
)
;
  }
  sWall
  {
    type wallHeatTransfer;
    Tinf uniform 315.2;
    alphaWall uniform 0.36;
    value uniform 304.052;
  }
  nWall
  {
    type wallHeatTransfer;
    Tinf uniform 307.2;
    alphaWall uniform 0.36;
    value nonuniform List<scalar> 6
(
  303.2
  303.097
  303.144
  303.523
  303.593
  303.732
)
;
  }
  sideWalls
  {
    type empty;
  }
  glass1
  {
    type wallHeatTransfer;
    Tinf uniform 315.2;
    alphaWall uniform 4.3;
    value nonuniform List<scalar> 9
(
  312.165
  311.083
  310.425
  309.96
  309.627
  309.373
  309.175
  309.25
  309.497
)
;
  }
  glass2
  {
    type wallHeatTransfer;
    Tinf uniform 307.2;
    alphaWall uniform 4.3;
    value nonuniform List<scalar> 2
(
  305.629
  305.614
)
;
  }
  sun
  {
    type wallHeatTransfer;
    Tinf uniform 305.2;
    alphaWall uniform 0.24;
    value nonuniform List<scalar> 14
(
  303.336
  303.033
  303.046
  303.037
  303.027
  303.018
  303.009
  303.001
  302.993
  302.984
  302.974
  302.963
  302.952
  302.941
)
;
  }
  heatsource1
  {
    type fixedGradient;
    gradient uniform 0;
  }
  heatsource2
  {
    type fixedGradient;
    gradient uniform 0;
  }
  Table_master
  {
    type zeroGradient;
  }
  Table_slave
  {
    type zeroGradient;
  }
  inlet
  {
    type fixedValue;
    value uniform 290.15;
  }
  outlet
  {
    type zeroGradient;
  }
} 	// ************************************************************************* //

