/*--------------------------------*- C++ -*----------------------------------*\
  =========                 |
  \\      /  F ield         | OpenFOAM: The Open Source CFD Toolbox
   \\    /   O peration     | Website:  https://openfoam.org
    \\  /    A nd           | Version:  6
     \\/     M anipulation  |
\*---------------------------------------------------------------------------*/
FoamFile
{
    version     2.0;
    format      ascii;
    class       volScalarField;
    location    "90";
    object      alphat;
}
// * * * * * * * * * * * * * * * * * * * * * * * * * * * * * * * * * * * * * //

dimensions      [1 -1 -1 0 0 0 0];

internalField   nonuniform List<scalar> 
459
(
0.00166598
0.00188022
0.00206752
0.00208245
0.00178304
0.0015025
0.00127796
0.00113834
0.00105104
0.000988349
0.000938762
0.000895513
0.000855912
0.000817375
0.000776312
0.00065503
0.000831392
0.000746065
0.000713029
0.000688162
0.000641571
0.000589065
0.0005429
0.000503537
0.000470564
0.000442825
0.000419268
0.000398886
0.000380723
0.000364314
0.000351961
0.000390828
0.000552866
0.000430292
0.00185827
0.00369179
0.00521819
0.00724299
0.00820933
0.00769991
0.00654133
0.0052946
0.00451842
0.00423905
0.00410491
0.00386404
0.0034273
0.0028009
0.00195276
0.000797349
0.000618567
0.000775307
0.00306014
0.00263138
0.00224547
0.0018469
0.00152106
0.00121327
0.00113112
0.00105537
0.000991976
0.000944425
0.000905008
0.00086469
0.000818487
0.000781267
0.000762813
0.000958588
0.00163279
0.000633804
0.00194057
0.00278177
0.00338218
0.00440232
0.0058225
0.00696226
0.00746734
0.00739626
0.00661698
0.00561554
0.00527507
0.0050469
0.0044407
0.0035338
0.00250441
0.00156362
0.000824465
0.00101376
0.00329985
0.00277511
0.00210547
0.00156029
0.00114047
0.000514193
0.000444409
0.000419809
0.000394611
0.000369533
0.00034807
0.00033095
0.000322083
0.000349837
0.000843373
0.00124801
0.00252212
0.000749707
0.00354298
0.00411928
0.00414132
0.00414288
0.00453963
0.005405
0.00642199
0.00723323
0.00750133
0.00703344
0.00633113
0.00611262
0.00556957
0.00453202
0.00327168
0.00211075
0.00136789
0.00112199
0.00219147
0.00266867
0.00224833
0.00178055
0.00143766
0.00113272
0.000892022
0.000918682
0.0009539
0.000994038
0.00102901
0.00103202
0.00102622
0.00100296
0.00095495
0.00103366
0.00124642
0.00217183
0.000990921
0.00407958
0.00512821
0.00490231
0.00458396
0.00453691
0.00500598
0.00590433
0.0069161
0.00764806
0.00778075
0.00748334
0.00729625
0.00718032
0.00663878
0.00583206
0.00490931
0.00402455
0.00334478
0.0029164
0.00305638
0.00297921
0.0028976
0.00284228
0.00283572
0.00289328
0.00304015
0.00324346
0.00350112
0.00379842
0.00393044
0.00390544
0.00378052
0.0035548
0.00318588
0.00268212
0.00215855
0.00191826
0.00102657
0.000974674
0.00113479
0.0043195
0.00592756
0.00533472
0.00472402
0.00455839
0.00489634
0.00572702
0.00678494
0.00767202
0.00804283
0.00798388
0.00809094
0.00833097
0.00824878
0.00788939
0.00734639
0.006631
0.0057941
0.00494603
0.00438729
0.00396344
0.00364712
0.00341449
0.00324011
0.00313634
0.00312731
0.00322722
0.00345131
0.00379392
0.00409102
0.00415981
0.0041277
0.00404023
0.00385371
0.00348489
0.00277476
0.00231777
0.00179953
0.00211851
0.00124312
0.00455022
0.00598409
0.00491121
0.00442727
0.00453122
0.00493921
0.00578487
0.00683483
0.00772609
0.00812907
0.00812143
0.00832241
0.0087919
0.00905295
0.00901984
0.00878122
0.00833685
0.0076892
0.0068882
0.00606204
0.00531359
0.00466775
0.00412856
0.00366085
0.00327429
0.00301388
0.00292508
0.00306402
0.00344503
0.0038704
0.00404648
0.00410572
0.00417258
0.00425231
0.00410219
0.00364009
0.00320049
0.00291552
0.00272923
0.00151632
0.00484314
0.00567377
0.00490899
0.0044119
0.00491661
0.00534197
0.00606884
0.00701642
0.00785114
0.00821305
0.00815614
0.008178
0.00857897
0.00908671
0.00929694
0.0092853
0.00906474
0.00863231
0.00801652
0.00729163
0.00654407
0.00582707
0.00514609
0.00447942
0.00382811
0.00324054
0.0028334
0.00277101
0.00317537
0.0037972
0.004072
0.00414982
0.00429521
0.00463055
0.00510312
0.00512978
0.00538272
0.0055837
0.00591647
0.0019634
0.00530715
0.00616062
0.00781814
0.0048431
0.00554907
0.00628298
0.00672773
0.007435
0.00811265
0.00840827
0.00824995
0.00807261
0.00813807
0.00841687
0.00870858
0.00883436
0.00877383
0.00852546
0.00810825
0.00757466
0.00699593
0.00642566
0.00587663
0.00531988
0.00468983
0.00387811
0.00303861
0.00253506
0.00285575
0.00376185
0.00420989
0.00412605
0.00395392
0.00380525
0.00369401
0.00358522
0.00338606
0.0030646
0.00276615
0.00181082
0.0117741
0.00625768
0.00575331
0.0073886
0.00765837
0.00807233
0.00850443
0.00861384
0.00827054
0.0078784
0.00761306
0.00751046
0.00752727
0.00753362
0.00748379
0.00734432
0.00710377
0.00678057
0.00641506
0.00605006
0.00571561
0.00541563
0.00510045
0.00462089
0.00362956
0.00233156
0.00229173
0.00341277
0.00442106
0.00450629
0.00437711
0.00426401
0.00407884
0.00380955
0.00344436
0.00299431
0.00250952
0.00151165
0.00471518
0.00407867
0.00671394
0.00737273
0.00766628
0.00790588
0.0080373
0.00775918
0.00719883
0.00663712
0.0061691
0.00581951
0.00558041
0.00537671
0.00522345
0.00510349
0.00498993
0.00486388
0.00472307
0.0045806
0.00445887
0.00437592
0.00430265
0.00407748
0.00336079
0.0021436
0.00158184
0.00251407
0.0038467
0.00416815
0.00416431
0.00425316
0.00433572
0.00433434
0.0041486
0.00388111
0.00318068
0.00154079
0.00236208
0.00274644
0.00312782
0.0019102
0.00197663
0.00210323
0.00216601
0.00217217
0.00209456
0.00195036
0.00181883
0.00170054
0.00159585
0.00150381
0.00142309
0.00135589
0.00129897
0.00125025
0.00120799
0.0011707
0.0011372
0.00110695
0.00108007
0.00105704
0.00103705
0.00101422
0.000977431
0.00092822
0.000900099
0.00103824
0.00115043
0.0012193
0.00131261
0.00142974
0.001583
0.00169085
0.0017283
0.00167283
0.00155563
0.00142655
)
;

boundaryField
{
    floor
    {
        type            compressible::alphatWallFunction;
        Prt             0.85;
        value           nonuniform List<scalar> 
29
(
0.000110313
9.25135e-05
0.000118244
0.000105913
0.000101104
9.7461e-05
9.0577e-05
8.27365e-05
7.57724e-05
6.97755e-05
6.47057e-05
6.0405e-05
5.6725e-05
5.35195e-05
5.06454e-05
4.80336e-05
4.6054e-05
5.21734e-05
7.70974e-05
5.83381e-05
5.83374e-05
8.92749e-05
0.000106352
0.000140854
0.000110311
9.25124e-05
0.000110145
0.000144189
0.000159333
)
;
    }
    ceiling
    {
        type            compressible::alphatWallFunction;
        Prt             0.85;
        value           nonuniform List<scalar> 
43
(
0.000323933
0.000372702
0.000420387
0.000265528
0.00027422
0.000290679
0.000298805
0.000299598
0.000289565
0.000270793
0.000253541
0.000237906
0.000223969
0.000211632
0.000200741
0.000191622
0.000183857
0.00017718
0.000171366
0.000166213
0.000161571
0.000157364
0.000153615
0.000150396
0.000147592
0.000144374
0.000139174
0.000132199
0.000128239
0.000147864
0.000163382
0.000172893
0.000185675
0.000201583
0.000222167
0.00023654
0.000241502
0.000234146
0.000218513
0.000201146
0.000683522
0.00078329
0.000613268
)
;
    }
    sWall
    {
        type            compressible::alphatWallFunction;
        Prt             0.85;
        value           uniform 0.000322814;
    }
    nWall
    {
        type            compressible::alphatWallFunction;
        Prt             0.85;
        value           nonuniform List<scalar> 6(0.000160819 0.000175763 0.000212841 0.000212241 0.000216147 0.000200772);
    }
    sideWalls
    {
        type            empty;
    }
    glass1
    {
        type            compressible::alphatWallFunction;
        Prt             0.85;
        value           nonuniform List<scalar> 9(0.000227728 0.000253044 0.000263825 0.000464192 0.000529152 0.000557797 0.000585186 0.000619786 0.000674255);
    }
    glass2
    {
        type            compressible::alphatWallFunction;
        Prt             0.85;
        value           nonuniform List<scalar> 2(0.000269976 0.000250153);
    }
    sun
    {
        type            compressible::alphatWallFunction;
        Prt             0.85;
        value           nonuniform List<scalar> 
14
(
0.000233157
0.000261421
0.000285833
0.000287777
0.000248629
0.000211244
0.000180812
0.000161594
0.000149433
0.000140629
0.000133615
0.000127461
0.000121795
0.000116252
)
;
    }
    heatsource1
    {
        type            compressible::alphatWallFunction;
        Prt             0.85;
        value           nonuniform List<scalar> 3(0.00014611 0.000138855 0.000161264);
    }
    heatsource2
    {
        type            compressible::alphatWallFunction;
        Prt             0.85;
        value           nonuniform List<scalar> 4(0.000113545 8.72873e-05 8.72863e-05 0.000117466);
    }
    Table_master
    {
        type            compressible::alphatWallFunction;
        Prt             0.85;
        value           nonuniform List<scalar> 9(7.15611e-05 6.08054e-05 5.69667e-05 5.30028e-05 4.90245e-05 4.55914e-05 4.28312e-05 4.13864e-05 4.58369e-05);
    }
    Table_slave
    {
        type            compressible::alphatWallFunction;
        Prt             0.85;
        value           nonuniform List<scalar> 9(0.000127135 0.000130932 0.000135927 0.00014159 0.000146474 0.000146879 0.000146057 0.000142779 0.000135995);
    }
    inlet
    {
        type            fixedValue;
        value           uniform 1.94e-05;
    }
    outlet
    {
        type            zeroGradient;
    }
}


// ************************************************************************* //
