/*--------------------------------*- C++ -*----------------------------------*\
  =========                 |
  \\      /  F ield         | OpenFOAM: The Open Source CFD Toolbox
   \\    /   O peration     | Website:  https://openfoam.org
    \\  /    A nd           | Version:  6
     \\/     M anipulation  |
\*---------------------------------------------------------------------------*/
FoamFile
{
    version     2.0;
    format      ascii;
    class       volScalarField;
    location    "90";
    object      epsilon;
}
// * * * * * * * * * * * * * * * * * * * * * * * * * * * * * * * * * * * * * //

dimensions      [0 2 -3 0 0 0 0];

internalField   nonuniform List<scalar> 
459
(
0.00103976
0.00149162
0.0019826
0.00202365
0.00126836
0.000757759
0.000466274
0.000329648
0.000259484
0.00021578
0.000184895
0.000160482
0.000140106
0.000122015
0.000104536
6.26705e-05
0.000128136
9.27023e-05
8.10079e-05
7.28609e-05
5.90541e-05
4.57026e-05
3.5772e-05
2.85355e-05
2.32825e-05
1.93973e-05
1.64584e-05
1.41691e-05
1.23176e-05
1.07906e-05
9.72603e-06
1.32611e-05
3.74058e-05
1.76726e-05
0.00145043
0.00214264
0.00412049
0.00545841
0.0050184
0.0031741
0.00163115
0.000772021
0.000351911
0.00020777
0.000146013
0.000118601
0.000108371
0.000103191
9.77805e-05
0.000113259
5.2839e-05
0.000103946
0.000223743
9.51123e-05
7.66549e-05
7.00442e-05
6.01347e-05
3.50616e-05
2.80404e-05
2.28171e-05
1.89242e-05
1.58703e-05
1.34444e-05
1.14803e-05
9.88425e-06
9.20369e-06
1.06842e-05
3.69383e-05
0.000176439
5.65131e-05
0.0016566
0.00360487
0.00385766
0.00417489
0.0045156
0.00428777
0.00360682
0.00264583
0.00117885
0.000449485
0.000225752
0.000144407
0.000120331
0.000115872
0.000116358
0.000119575
0.000125232
0.000232517
0.000234584
0.000112592
8.8034e-05
8.09994e-05
7.64123e-05
3.03566e-05
1.95834e-05
1.65048e-05
1.37047e-05
1.12522e-05
9.40171e-06
8.07955e-06
7.44199e-06
9.51943e-06
5.32014e-05
8.50084e-05
0.000485455
9.36645e-05
0.0101062
0.0091413
0.00712727
0.00560095
0.00465173
0.0041321
0.00370226
0.00313752
0.00235431
0.0012449
0.000427896
0.000205296
0.000145563
0.000131996
0.000135648
0.00015654
0.000210133
0.000315536
0.000224113
0.000117598
8.21839e-05
7.91804e-05
8.95295e-05
0.000113492
0.000158602
0.000173225
0.000193882
0.000219321
0.000242998
0.000244999
0.000240812
0.000224731
0.000193913
0.000145226
0.000138125
0.000561634
0.000216201
0.0154331
0.0133851
0.00888707
0.00605163
0.00448998
0.00373553
0.00333216
0.00295113
0.00241363
0.00160915
0.000694687
0.000300185
0.000185516
0.000152168
0.000138704
0.000128727
0.000121614
0.000115596
9.42246e-05
6.84993e-05
5.92082e-05
6.16934e-05
6.9098e-05
7.95114e-05
9.26591e-05
0.000108445
0.00012902
0.000154373
0.000182292
0.000193128
0.000196764
0.000189471
0.000164029
0.000130996
0.00011973
0.00024722
0.000296344
0.000240775
0.000206494
0.000325925
0.0182948
0.0173945
0.00921175
0.00518202
0.00367538
0.00308018
0.00281866
0.00258509
0.00220124
0.00158508
0.000795638
0.000380942
0.000233347
0.000191637
0.000179054
0.000167069
0.000146725
0.000119641
9.23918e-05
7.3281e-05
6.54597e-05
6.59691e-05
6.98697e-05
7.55291e-05
8.38713e-05
9.69462e-05
0.000116422
0.00014322
0.000177174
0.000209635
0.000237295
0.000257472
0.000250339
0.000196473
0.000153804
0.000169455
0.000202333
0.000193355
0.000407118
0.000428288
0.021356
0.0219058
0.0100795
0.00335275
0.00263422
0.00243026
0.00234132
0.0022094
0.00191853
0.00141973
0.000802899
0.000414412
0.000270076
0.000227493
0.000221049
0.00021813
0.000205108
0.000179346
0.000146084
0.000116187
9.77895e-05
8.94052e-05
8.67822e-05
8.66835e-05
8.94912e-05
9.76578e-05
0.000113482
0.000141385
0.000184793
0.000237451
0.000294636
0.000358129
0.000403452
0.000398239
0.000315605
0.000297117
0.000356541
0.000461422
0.000791201
0.000777379
0.0257124
0.0289741
0.0195071
0.00316357
0.00210679
0.00205043
0.00200124
0.00190349
0.00166463
0.00124055
0.000763952
0.000448062
0.000304814
0.000258844
0.000254891
0.000258286
0.00025352
0.00023512
0.000205495
0.000173102
0.000146717
0.000129866
0.000120667
0.000115819
0.000114144
0.00011618
0.000123194
0.000147265
0.000202998
0.000289674
0.000387305
0.000498082
0.000626475
0.000780292
0.000938257
0.00125939
0.00212846
0.00313747
0.00725103
0.00169244
0.0337807
0.052667
0.0629427
0.0117652
0.00231287
0.00197255
0.00182725
0.00170259
0.00148829
0.0011105
0.000735357
0.000486038
0.000357176
0.000303725
0.000287733
0.000286626
0.000284091
0.000271865
0.000249329
0.000221848
0.000196198
0.00017657
0.000164115
0.000158222
0.000157775
0.000158873
0.000149451
0.000154331
0.000216283
0.000347707
0.000499555
0.000647617
0.0008121
0.0010031
0.00123304
0.00151211
0.00183225
0.00208793
0.00231733
0.00132993
0.143187
0.0319985
0.0034786
0.00204761
0.00178402
0.00162413
0.00141415
0.00105977
0.000755115
0.000552083
0.000433444
0.000369935
0.000338567
0.000324076
0.000314266
0.000301774
0.000284142
0.000263116
0.000242317
0.000225078
0.000213893
0.000210822
0.000217362
0.000229075
0.000204539
0.000158585
0.000202296
0.000355738
0.000539472
0.000686529
0.000838507
0.00103058
0.00122718
0.0013844
0.00146457
0.00139912
0.00114615
0.000772777
0.0235821
0.00351938
0.00201657
0.00177729
0.00174496
0.00165702
0.00146558
0.00113204
0.000871727
0.000692244
0.000572645
0.000493234
0.000439162
0.000401559
0.000374452
0.000353485
0.000335566
0.000319051
0.000303727
0.000290446
0.00028067
0.000275531
0.000272709
0.000259794
0.000214101
0.000154112
0.000170505
0.00034278
0.000488253
0.000533752
0.000646099
0.000848535
0.00110716
0.00136624
0.00151296
0.0015049
0.00103301
0.000818206
0.00297017
0.00466468
0.00688945
0.00157282
0.00174314
0.00209997
0.00229344
0.00231219
0.00207194
0.00167182
0.00135538
0.00110741
0.000914993
0.000765469
0.000648564
0.000560843
0.000493037
0.000439528
0.000396384
0.000360726
0.000330586
0.000304852
0.000283138
0.000265377
0.000250554
0.000234273
0.000209576
0.000179434
0.000163721
0.000251267
0.000340487
0.000405352
0.000505645
0.000653432
0.000886679
0.00108083
0.00115432
0.00104675
0.000841787
0.000649379
)
;

boundaryField
{
    floor
    {
        Cmu             0.09;
        kappa           0.41;
        E               9.8;
        type            epsilonWallFunction;
        value           nonuniform List<scalar> 
29
(
0.000104536
6.26705e-05
0.000128136
9.27023e-05
8.10079e-05
7.28609e-05
5.90541e-05
4.57026e-05
3.5772e-05
2.85355e-05
2.32825e-05
1.93973e-05
1.64584e-05
1.41691e-05
1.23176e-05
1.07906e-05
9.72603e-06
1.32611e-05
3.74058e-05
1.76726e-05
1.76726e-05
5.65131e-05
9.36645e-05
0.000216201
0.000104536
6.26705e-05
0.000103946
0.000232517
0.000315536
)
;
    }
    ceiling
    {
        Cmu             0.09;
        kappa           0.41;
        E               9.8;
        type            epsilonWallFunction;
        value           nonuniform List<scalar> 
43
(
0.00297017
0.00466468
0.00688945
0.00157282
0.00174314
0.00209997
0.00229344
0.00231219
0.00207194
0.00167182
0.00135538
0.00110741
0.000914993
0.000765469
0.000648564
0.000560843
0.000493037
0.000439528
0.000396384
0.000360726
0.000330586
0.000304852
0.000283138
0.000265377
0.000250554
0.000234273
0.000209576
0.000179434
0.000163721
0.000251267
0.000340487
0.000405352
0.000505645
0.000653432
0.000886679
0.00108083
0.00115432
0.00104675
0.000841787
0.000649379
0.0337807
0.052667
0.0235821
)
;
    }
    sWall
    {
        Cmu             0.09;
        kappa           0.41;
        E               9.8;
        type            epsilonWallFunction;
        value           uniform 0.00297017;
    }
    nWall
    {
        Cmu             0.09;
        kappa           0.41;
        E               9.8;
        type            epsilonWallFunction;
        value           nonuniform List<scalar> 6(0.000325925 0.000428288 0.000777379 0.000772777 0.000818206 0.000649379);
    }
    sideWalls
    {
        type            empty;
    }
    glass1
    {
        Cmu             0.09;
        kappa           0.41;
        E               9.8;
        type            epsilonWallFunction;
        value           nonuniform List<scalar> 9(0.00103976 0.00145043 0.0016566 0.0101062 0.0154331 0.0182948 0.021356 0.0257124 0.0337807);
    }
    glass2
    {
        Cmu             0.09;
        kappa           0.41;
        E               9.8;
        type            epsilonWallFunction;
        value           nonuniform List<scalar> 2(0.00169244 0.00132993);
    }
    sun
    {
        Cmu             0.09;
        kappa           0.41;
        E               9.8;
        type            epsilonWallFunction;
        value           nonuniform List<scalar> 
14
(
0.00103976
0.00149162
0.0019826
0.00202365
0.00126836
0.000757759
0.000466274
0.000329648
0.000259484
0.00021578
0.000184895
0.000160482
0.000140106
0.000122015
)
;
    }
    heatsource1
    {
        Cmu             0.09;
        kappa           0.41;
        E               9.8;
        type            epsilonWallFunction;
        value           nonuniform List<scalar> 3(0.000240775 0.000206494 0.000325925);
    }
    heatsource2
    {
        Cmu             0.09;
        kappa           0.41;
        E               9.8;
        type            epsilonWallFunction;
        value           nonuniform List<scalar> 4(0.000113259 5.2839e-05 5.2839e-05 0.000125232);
    }
    Table_master
    {
        Cmu             0.09;
        kappa           0.41;
        E               9.8;
        type            epsilonWallFunction;
        value           nonuniform List<scalar> 9(3.03566e-05 1.95834e-05 1.65048e-05 1.37047e-05 1.12522e-05 9.40171e-06 8.07955e-06 7.44199e-06 9.51943e-06);
    }
    Table_slave
    {
        Cmu             0.09;
        kappa           0.41;
        E               9.8;
        type            epsilonWallFunction;
        value           nonuniform List<scalar> 9(0.000158602 0.000173225 0.000193882 0.000219321 0.000242998 0.000244999 0.000240812 0.000224731 0.000193913);
    }
    inlet
    {
        type            turbulentMixingLengthDissipationRateInlet;
        mixingLength    0.01;
        phi             phi;
        k               k;
        value           uniform 3.77336e-06;
    }
    outlet
    {
        type            zeroGradient;
    }
}


// ************************************************************************* //
