/*--------------------------------*- C++ -*----------------------------------*\
  =========                 |
  \\      /  F ield         | OpenFOAM: The Open Source CFD Toolbox
   \\    /   O peration     | Website:  https://openfoam.org
    \\  /    A nd           | Version:  6
     \\/     M anipulation  |
\*---------------------------------------------------------------------------*/
FoamFile
{
    version     2.0;
    format      ascii;
    class       volScalarField;
    location    "90";
    object      nut;
}
// * * * * * * * * * * * * * * * * * * * * * * * * * * * * * * * * * * * * * //

dimensions      [0 2 -1 0 0 0 0];

internalField   nonuniform List<scalar> 
459
(
0.00143229
0.00161543
0.00177637
0.00178841
0.00153036
0.00128914
0.0010963
0.000976447
0.000901519
0.00084771
0.000805149
0.000768031
0.000734045
0.000700978
0.00066576
0.000561487
0.000712671
0.000639574
0.000611305
0.00059
0.000550036
0.000504991
0.000465376
0.000431594
0.000403295
0.00037949
0.000359277
0.000341794
0.000326218
0.000312151
0.000301562
0.000334855
0.000473689
0.000368709
0.00159951
0.00317724
0.00449412
0.00623446
0.00706059
0.00661618
0.00561663
0.00454411
0.0038769
0.0036367
0.00352131
0.00331446
0.00293966
0.00240223
0.00167469
0.000683734
0.00053032
0.0006646
0.00262339
0.00225605
0.00192534
0.00158361
0.0013041
0.00104001
0.000969433
0.000904396
0.000849978
0.000809163
0.000775338
0.00074076
0.000701157
0.000669263
0.000653461
0.000821216
0.00139888
0.000543084
0.0016724
0.00239795
0.00291555
0.00379426
0.00501607
0.00599341
0.00642274
0.00635629
0.00568133
0.00481923
0.00452612
0.00432983
0.00380944
0.0030312
0.002148
0.00134095
0.000706968
0.000869157
0.00282944
0.0023797
0.00180556
0.00133801
0.000977893
0.000440684
0.000380792
0.000359675
0.00033806
0.000316556
0.000298158
0.000283485
0.000275887
0.000299667
0.000722663
0.00106936
0.00216114
0.000642428
0.00305813
0.00355325
0.00357152
0.00357257
0.00391373
0.00465751
0.0055299
0.00622312
0.00644795
0.00604013
0.00543378
0.00524517
0.00477868
0.00388811
0.00280654
0.00181044
0.00117314
0.000962186
0.00187929
0.00228877
0.00192842
0.00152724
0.00123314
0.000971553
0.000765083
0.000787929
0.000818112
0.000852502
0.00088244
0.000884988
0.000879987
0.000860013
0.000818813
0.000886246
0.00106857
0.00186167
0.000849234
0.00351984
0.00441956
0.00422411
0.00395028
0.00391021
0.00431394
0.00508581
0.00595308
0.0065775
0.00668549
0.00642495
0.00626229
0.00616207
0.0056969
0.00500423
0.00421209
0.00345268
0.00286931
0.00250175
0.00262197
0.00255592
0.00248598
0.00243851
0.00243282
0.00248211
0.00260801
0.00278227
0.00300309
0.00325782
0.00337086
0.00334932
0.00324207
0.00304835
0.00273181
0.00229964
0.0018505
0.00164421
0.000879907
0.000835574
0.000972931
0.00372505
0.00510348
0.00459276
0.00406855
0.00392745
0.00421901
0.00493333
0.00584108
0.00659957
0.00691268
0.00685676
0.00694628
0.00715129
0.0070803
0.00677146
0.00630501
0.00569065
0.00497216
0.00424425
0.00376485
0.00340123
0.00312981
0.00293014
0.00278042
0.00269125
0.00268333
0.00276884
0.00296079
0.00325432
0.0035089
0.0035678
0.00354014
0.00346495
0.00330472
0.00298816
0.00237897
0.00198688
0.00154252
0.00181597
0.00106568
0.00392214
0.0051494
0.00422707
0.0038126
0.0039038
0.00425568
0.00498293
0.00588404
0.0066465
0.00698785
0.00697673
0.00714686
0.00754894
0.00777258
0.00774385
0.00753868
0.00715685
0.00660058
0.00591281
0.00520359
0.00456116
0.00400676
0.00354386
0.00314227
0.00281032
0.0025866
0.00251011
0.00262894
0.00295536
0.00331994
0.00347089
0.00352163
0.00357883
0.00364688
0.00351772
0.0031211
0.00274388
0.0024994
0.00233965
0.00129996
0.00417248
0.00488175
0.00422513
0.00379985
0.00423557
0.00460209
0.00522694
0.00603999
0.00675411
0.00706072
0.00700815
0.00702481
0.00736816
0.00780367
0.00798392
0.00797366
0.00778397
0.00741237
0.00688339
0.00626085
0.00561892
0.00500323
0.00441846
0.00384592
0.00328654
0.00278184
0.00243199
0.00237798
0.00272436
0.00325738
0.00349305
0.0035598
0.00368444
0.00397184
0.00437661
0.00439893
0.00461559
0.00478792
0.00507341
0.00168455
0.0045699
0.00529898
0.0067244
0.00417058
0.00477968
0.00541166
0.00579339
0.00639968
0.0069791
0.00722921
0.00709028
0.00693622
0.00699157
0.00723057
0.00748077
0.00758853
0.00753626
0.00732266
0.00696408
0.00650562
0.00600845
0.00551858
0.00504696
0.00456869
0.00402742
0.00333007
0.00260885
0.00217605
0.00245055
0.00322728
0.00361159
0.00353977
0.00339221
0.00326476
0.00316944
0.00307624
0.00290562
0.00263007
0.00237415
0.00155457
0.0101121
0.0053865
0.00495402
0.00636224
0.0065934
0.00694749
0.00731616
0.00740677
0.00710952
0.00677122
0.00654245
0.00645382
0.0064679
0.00647305
0.00642996
0.00630988
0.00610298
0.00582513
0.00551096
0.00519727
0.00490983
0.00465201
0.00438109
0.00396895
0.00311722
0.00200205
0.0019671
0.00292801
0.00379291
0.00386618
0.00375553
0.00365865
0.00349993
0.00326902
0.00295584
0.00256977
0.00215377
0.00129741
0.0040549
0.00351054
0.00577954
0.00634686
0.00659887
0.00680357
0.00691435
0.00667278
0.00618962
0.00570589
0.00530305
0.0050022
0.00479641
0.0046211
0.00448917
0.00438587
0.0042881
0.00417961
0.00405847
0.0039359
0.00383118
0.00375977
0.00369666
0.00350305
0.00288721
0.00184142
0.00135833
0.00215717
0.00330022
0.00357607
0.00357292
0.00364931
0.00372032
0.00371932
0.00356011
0.00333069
0.00272951
0.00132236
0.00203261
0.00236271
0.00269081
0.00164395
0.00170119
0.00181016
0.0018641
0.00186917
0.00180193
0.00167754
0.0015642
0.00146233
0.00137222
0.001293
0.00122354
0.00116571
0.00111672
0.00107478
0.00103841
0.00100631
0.000977476
0.000951437
0.000928296
0.000908473
0.000891259
0.000871602
0.000839961
0.00079763
0.000773263
0.000891045
0.000987061
0.00104615
0.00112623
0.00122675
0.0013583
0.0014509
0.00148307
0.00143549
0.00133492
0.0012243
)
;

boundaryField
{
    floor
    {
        type            nutkWallFunction;
        Cmu             0.09;
        kappa           0.41;
        E               9.8;
        value           nonuniform List<scalar> 
29
(
8.05382e-05
6.75305e-05
8.62885e-05
7.73043e-05
7.38037e-05
7.11488e-05
6.61271e-05
6.04066e-05
5.53244e-05
5.09474e-05
4.72468e-05
4.41077e-05
4.14218e-05
3.90826e-05
3.69855e-05
3.50801e-05
3.36359e-05
3.8098e-05
5.62686e-05
4.25969e-05
4.25969e-05
6.51495e-05
7.75985e-05
0.000102752
8.05382e-05
6.75304e-05
8.03869e-05
0.000105219
0.000116283
)
;
    }
    ceiling
    {
        type            nutkWallFunction;
        Cmu             0.09;
        kappa           0.41;
        E               9.8;
        value           nonuniform List<scalar> 
43
(
0.00023695
0.000272553
0.000307423
0.000194251
0.000200617
0.00021266
0.000218593
0.000219148
0.000211759
0.000197996
0.000185361
0.000173916
0.000163718
0.000154693
0.000146727
0.000140056
0.000134376
0.000129491
0.000125238
0.000121468
0.000118072
0.000114994
0.000112251
0.000109896
0.000107843
0.000105489
0.000101688
9.65881e-05
9.36741e-05
0.00010791
0.000119204
0.000126141
0.000135466
0.000147071
0.00016209
0.000172578
0.000176203
0.00017084
0.000159436
0.000146783
0.000500289
0.000572701
0.000448303
)
;
    }
    sWall
    {
        type            nutkWallFunction;
        Cmu             0.09;
        kappa           0.41;
        E               9.8;
        value           uniform 0.000237009;
    }
    nWall
    {
        type            nutkWallFunction;
        Cmu             0.09;
        kappa           0.41;
        E               9.8;
        value           nonuniform List<scalar> 6(0.000117529 0.000128415 0.000155458 0.000155172 0.000158018 0.000146795);
    }
    sideWalls
    {
        type            empty;
    }
    glass1
    {
        type            nutkWallFunction;
        Cmu             0.09;
        kappa           0.41;
        E               9.8;
        value           nonuniform List<scalar> 9(0.000170709 0.000189605 0.000197712 0.000346448 0.000394402 0.000415455 0.000435556 0.00046094 0.000500926);
    }
    glass2
    {
        type            nutkWallFunction;
        Cmu             0.09;
        kappa           0.41;
        E               9.8;
        value           nonuniform List<scalar> 2(0.000198849 0.000184345);
    }
    sun
    {
        type            nutkWallFunction;
        Cmu             0.09;
        kappa           0.41;
        E               9.8;
        value           nonuniform List<scalar> 
14
(
0.000170497
0.000191039
0.000208871
0.000210205
0.000181524
0.0001542
0.000131981
0.000117956
0.000109082
0.000102658
9.75397e-05
9.30486e-05
8.89142e-05
8.48703e-05
)
;
    }
    heatsource1
    {
        type            nutkWallFunction;
        Cmu             0.09;
        kappa           0.41;
        E               9.8;
        value           nonuniform List<scalar> 3(0.000106449 0.000101181 0.000117522);
    }
    heatsource2
    {
        type            nutkWallFunction;
        Cmu             0.09;
        kappa           0.41;
        E               9.8;
        value           nonuniform List<scalar> 4(8.27599e-05 6.36087e-05 6.36087e-05 8.56171e-05);
    }
    Table_master
    {
        type            nutkWallFunction;
        Cmu             0.09;
        kappa           0.41;
        E               9.8;
        value           nonuniform List<scalar> 9(5.21316e-05 4.42864e-05 4.14861e-05 3.85964e-05 3.56972e-05 3.3196e-05 3.11855e-05 3.01332e-05 3.33744e-05);
    }
    Table_slave
    {
        type            nutkWallFunction;
        Cmu             0.09;
        kappa           0.41;
        E               9.8;
        value           nonuniform List<scalar> 9(9.26854e-05 9.54512e-05 9.90902e-05 0.000103214 0.000106767 0.000107059 0.000106456 0.000104064 9.91151e-05);
    }
    inlet
    {
        type            calculated;
        value           uniform 3.3541e-05;
    }
    outlet
    {
        type            calculated;
        value           nonuniform List<scalar> 2(0.00203261 0.00236271);
    }
}


// ************************************************************************* //
