/*--------------------------------*- C++ -*----------------------------------*\
  =========                 |
  \\      /  F ield         | OpenFOAM: The Open Source CFD Toolbox
   \\    /   O peration     | Website:  https://openfoam.org
    \\  /    A nd           | Version:  6
     \\/     M anipulation  |
\*---------------------------------------------------------------------------*/
FoamFile
{
    version     2.0;
    format      ascii;
    class       surfaceScalarField;
    location    "90";
    object      phi;
}
// * * * * * * * * * * * * * * * * * * * * * * * * * * * * * * * * * * * * * //

dimensions      [1 0 -1 0 0 0 0];

internalField   nonuniform List<scalar> 
852
(
-0.00343658
0.00349267
-0.0040258
0.000589893
-0.00343743
-0.000587657
-0.00288479
-0.000552072
-0.00282158
-6.28754e-05
-0.00298842
0.000167076
-0.00306466
7.63904e-05
-0.0029784
-8.61481e-05
-0.00272013
-0.000258162
-0.00235813
-0.000361902
-0.00193458
-0.00042346
-0.00148375
-0.000450739
-0.00102043
-0.000463239
-0.000523899
-0.000496448
-0.000520236
-0.000471311
0.000475618
-0.000268135
-0.00020308
-5.95962e-07
-0.00026745
0.000289383
-0.000289899
0.000555417
-0.000265969
0.0006316
-7.61179e-05
0.000500091
0.000131578
0.000410878
8.9281e-05
0.000343822
6.71184e-05
0.000294169
4.97083e-05
0.00026566
2.8558e-05
0.000254584
1.11206e-05
0.000250968
3.65595e-06
0.000239069
1.19347e-05
0.000196461
4.26413e-05
0.000206617
-1.01256e-05
0.000387385
-0.000180751
0.000638087
-0.000250681
0.000643826
-0.00176541
0.00541407
-0.00052077
-0.000653879
0.000994105
-0.00210179
0.00113259
-0.000689692
0.000470693
0.000599914
-0.000500905
0.00113943
-0.00147024
0.00104609
-0.00213116
0.000574982
-0.00229733
-9.18849e-05
-0.00218733
-0.000471822
-0.00194464
-0.000666077
-0.00162654
-0.000768775
-0.00124262
-0.000847095
-0.000815346
-0.000923657
-0.000384857
-0.00095066
0.000310687
-0.000695532
0.000310724
4.91508e-05
0.000437796
-0.00025991
0.000106059
-0.000383301
-0.000143992
-0.000312316
-0.000360836
-9.78853e-05
-0.000480372
5.62569e-05
-0.000230245
2.24628e-05
0.000165396
4.30714e-05
6.86951e-05
4.91451e-05
6.10688e-05
5.60667e-05
4.28095e-05
6.48101e-05
1.98341e-05
7.19975e-05
3.94912e-06
7.58575e-05
-1.89982e-07
6.35874e-05
2.422e-05
-2.59869e-05
0.000132237
-3.84472e-05
2.37296e-06
0.000159907
-0.000379011
0.000327464
-0.000418144
0.000984719
0.00441379
0.00124802
0.00693273
-0.00317226
0.00695857
-0.00212713
0.0060927
0.000176745
0.0048188
0.00187448
0.00329492
0.00266401
0.00163109
0.00271053
-8.60913e-06
0.00221523
-0.00125957
0.00115927
-0.00177629
4.49716e-05
-0.00183657
-0.000605747
-0.00177781
-0.000827487
-0.00164816
-0.000976695
-0.0014684
-0.00110336
-0.00125973
-0.00115928
-0.00093051
-0.00102469
-0.000619723
-0.000591999
0.00104509
-0.000916565
0.000430696
-0.00110466
4.415e-05
-0.00116742
-0.00029805
-0.00107561
-0.000572164
-0.000507941
-0.000797926
-0.000342383
-0.000273516
-0.000212275
-0.000169294
-0.000149294
-0.000145181
-0.000145207
-0.000120817
1.16089e-05
0.000298283
-0.000284128
8.49082e-05
-0.000165489
-0.000151221
-0.000181893
0.00085338
0.00865435
-0.00714596
0.0108225
-0.00534022
0.0104276
-0.00173207
0.00928445
0.00132015
0.0077218
0.00343743
0.00586659
0.0045196
0.00393378
0.00464375
0.0021228
0.00402658
0.000408486
0.00287378
-0.000898424
0.00135194
-0.00154426
4.01184e-05
-0.00184063
-0.000531076
-0.00202597
-0.000791315
-0.00218551
-0.000943773
-0.00235062
-0.000994123
-0.00249227
-0.000882998
-0.00263751
-0.00047442
-0.0025307
-9.03779e-05
-0.00196772
0.00048219
-0.00200214
0.000465175
-0.00210346
0.000145524
-0.00221552
-0.000185941
-0.00232953
-0.000458098
-0.00255982
-0.000567562
-0.00209081
-0.000469079
-0.00156339
-0.000527482
-0.000894528
-0.000668901
-6.98649e-05
-0.000824677
0.000781736
-0.000851619
0.00152164
-0.000739925
0.00215097
-0.000629359
0.00260656
-0.000455612
0.0027988
-0.000192251
0.0024001
0.000114712
0.00168596
0.000548796
0.000470905
0.00103332
0.00134692
0.00565908
-0.012491
0.00711843
-0.00679953
0.00696932
-0.00158294
0.0064945
0.00179504
0.00577196
0.00416015
0.00473146
0.00556035
0.00349762
0.00587789
0.00222028
0.00530418
0.000974161
0.00412003
-0.000213385
0.00253946
-0.00109299
0.000919694
-0.00162648
2.43672e-06
-0.0019698
-0.000447964
-0.00225059
-0.000662944
-0.00250605
-0.000738618
-0.00272014
-0.000668865
-0.00276758
-0.000426929
-0.00276047
-9.74409e-05
-0.00248604
0.000207825
-0.00225883
0.000238022
-0.00216388
5.06274e-05
-0.00214771
-0.000202053
-0.00217001
-0.000435739
-0.00214818
-0.00058932
-0.00190587
-0.000711297
-0.00152724
-0.000906004
-0.0010241
-0.00117191
-0.000403747
-0.00144488
0.000302962
-0.00155817
0.000974479
-0.00141131
0.00156807
-0.00122282
0.00205382
-0.000941225
0.00234126
-0.000479556
0.00230721
0.000148909
0.0020375
0.000818656
0.00157175
0.00149922
0.0011709
0.00174792
-0.000379061
0.00154985
-0.00112966
0.000750468
-0.00107209
0.00194528
-0.0140592
0.00257699
-0.00743114
0.00315231
-0.00215814
0.00303475
0.00191273
0.00285176
0.00434332
0.00250109
0.00591126
0.00201919
0.00636005
0.00143531
0.00588824
0.000788243
0.00476716
8.17867e-05
0.00324584
-0.000620638
0.00162201
-0.0011526
0.000534387
-0.00152304
-7.74979e-05
-0.00179311
-0.00039283
-0.00201679
-0.0005149
-0.00219098
-0.000494626
-0.00226534
-0.00035253
-0.00222437
-0.000138371
-0.00205584
3.93438e-05
-0.0018847
6.69261e-05
-0.00178901
-4.50232e-05
-0.00176845
-0.000222554
-0.00178639
-0.000417736
-0.00176866
-0.000606975
-0.00165538
-0.000824475
-0.00144019
-0.00112107
-0.00111798
-0.00149397
-0.00068808
-0.00187461
-0.000161325
-0.00208475
0.000373747
-0.00194624
0.000879542
-0.00172849
0.00136252
-0.00142407
0.00178544
-0.000902339
0.002042
-0.000107505
0.00214626
0.000714544
0.00225835
0.00138729
0.00242434
0.00158208
0.00262233
0.00135199
0.00217936
0.00119355
0.00117382
-0.000536568
-0.0130821
-0.000182427
-0.00778508
0.00021584
-0.0025562
-0.000276535
0.00240536
-6.43661e-05
0.00413135
0.000260269
0.00558686
0.000460481
0.00616005
0.000496408
0.00585245
0.000395054
0.00486853
0.000184685
0.0034561
-0.000189196
0.00199576
-0.000563782
0.000908946
-0.00087445
0.000233193
-0.00110522
-0.000162021
-0.00127729
-0.00034278
-0.001394
-0.000377868
-0.00143743
-0.000309055
-0.00139185
-0.00018392
-0.001279
-7.34694e-05
-0.00116862
-4.34142e-05
-0.00111523
-9.83674e-05
-0.00112801
-0.000209729
-0.00118627
-0.000359412
-0.0012496
-0.000543565
-0.00128284
-0.000791129
-0.00125902
-0.00114476
-0.00115045
-0.00160237
-0.000927047
-0.00209782
-0.000605003
-0.00240658
-0.000294841
-0.00225626
3.4716e-06
-0.00202668
0.000349328
-0.0017698
0.000763281
-0.00131615
0.0012153
-0.000559372
0.00163671
0.000293281
0.00205618
0.00096797
0.00258537
0.00105303
0.00316091
0.000776582
0.00310976
0.00124481
0.00435121
-0.00298513
-0.00959639
-0.00451149
-0.00625852
-0.00399698
-0.00307047
-0.00346544
0.00187406
-0.00252331
0.00318942
-0.0015744
0.00463816
-0.000808231
0.00539405
-0.000262387
0.0053067
7.93151e-05
0.00452683
0.000277665
0.00325764
0.000257019
0.00201629
0.000104145
0.00106178
-8.89646e-05
0.000426313
-0.000270445
1.95008e-05
-0.000407943
-0.00020523
-0.000496773
-0.000288985
-0.000527458
-0.00027832
-0.000494695
-0.000216637
-0.000416893
-0.000151229
-0.000338675
-0.00012159
-0.000299475
-0.000137524
-0.000317571
-0.000191585
-0.000397479
-0.000279446
-0.00053237
-0.000408599
-0.000710898
-0.0006125
-0.000898704
-0.00095682
-0.00104817
-0.00145273
-0.00107675
-0.00206901
-0.000968586
-0.00251446
-0.000935028
-0.00228967
-0.00102085
-0.00194075
-0.00108189
-0.00170863
-0.000997571
-0.00140035
-0.000640188
-0.000916616
-0.00012437
-0.000222367
0.000353281
0.000490459
0.000717192
0.000689245
0.000977833
0.000516053
0.000456255
0.00176649
0.00513829
-0.00904315
-0.0152998
-0.0102594
-0.00811076
-0.00638571
-0.00199939
-0.00435027
0.00115416
-0.00287588
0.00316394
-0.00167798
0.00419629
-0.000738562
0.00436735
-4.10981e-05
0.00382936
0.000477219
0.00273925
0.000742959
0.00175048
0.000817003
0.000987712
0.00078159
0.000461743
0.000682633
0.000118499
0.000569832
-9.23731e-05
0.00048038
-0.000199474
0.000431843
-0.000229725
0.000429277
-0.000214017
0.000461865
-0.000183767
0.000504079
-0.000163756
0.000530298
-0.000163695
0.000521802
-0.000183041
0.000461894
-0.000219486
0.000328289
-0.00027493
8.54971e-05
-0.000369624
-0.00027915
-0.000592046
-0.000706889
-0.00102481
-0.00101804
-0.0017576
-0.00109959
-0.00243255
-0.00133021
-0.00205889
-0.00197608
-0.00129477
-0.00281736
-0.00086725
-0.0037476
-0.000470008
-0.00470255
3.84523e-05
-0.00563241
0.000707609
-0.00662522
0.00148337
-0.00804665
0.00211078
-0.00976475
0.00223424
-0.00888336
0.000885185
-0.00337604
-0.00829582
0.000747005
-0.00652315
-0.00377191
-0.00490359
-0.000465241
-0.00345495
0.00171544
-0.0020915
0.00283296
-0.00089627
0.00317219
9.26421e-05
0.00284046
0.000850859
0.001981
0.0013225
0.00127882
0.00156612
0.000744104
0.00165645
0.000371454
0.00164757
0.00012743
0.00158092
-2.56636e-05
0.00149872
-0.000117211
0.00142969
-0.000160625
0.00138696
-0.000171228
0.00136937
-0.00016611
0.00136469
-0.000159018
0.00135782
-0.000156775
0.00133508
-0.000160242
0.0012822
-0.000166555
0.00117838
-0.000171048
0.000985808
-0.000176977
0.00062222
-0.000228372
5.09076e-05
-0.000453364
-0.000542362
-0.00116407
-0.000739764
-0.00223462
-0.000833985
-0.00196444
-0.00141266
-0.000716006
-0.00207987
-0.000199963
-0.00262671
7.69107e-05
-0.00309488
0.000506716
-0.00348827
0.00110109
-0.00368669
0.00168188
-0.00362329
0.00204745
-0.00308728
0.0016983
-0.00163219
-0.000569838
-0.00491552
-0.00187347
0.00262282
-0.00413823
-0.00150702
-0.00433673
-0.0002666
-0.00346428
0.000843114
-0.00213579
0.00150458
-0.000749181
0.00178566
0.000501395
0.00158991
0.00143539
0.00104703
0.00203698
0.000677274
0.0023812
0.000399928
0.00254673
0.000205988
0.00259502
7.92191e-05
0.00257045
-1.02334e-06
0.00250992
-5.6598e-05
0.00243693
-8.75642e-05
0.00236731
-0.00010153
0.00230708
-0.000105809
0.00225437
-0.000106242
0.00220366
-0.000106006
0.00214888
-0.000105398
0.00208375
-0.000101364
0.00199936
-8.65855e-05
0.00187753
-5.50766e-05
0.00167715
-2.79229e-05
0.00132291
-9.90611e-05
0.00067446
-0.000515484
-0.000103688
-0.00145578
-0.000461422
-0.00160631
-0.000736585
-0.000440753
-0.000990355
5.38696e-05
-0.00115813
0.000244755
-0.00116641
0.00051506
-0.0010053
0.000940063
-0.000518748
0.0011954
0.000338306
0.00119047
0.00145133
0.000585334
0.00159754
-0.000715984
-0.00321652
-0.00327651
-0.00529254
-0.00266637
-0.00417029
-0.00443401
-0.00358815
-0.00208067
-0.000291657
0.00130262
0.00235505
0.00303856
0.00344545
0.00365905
0.0037465
0.00375428
0.00370705
0.0036294
0.0035383
0.00344345
0.00334865
0.00325458
0.0031616
0.00307312
0.00299985
0.00295853
0.00294482
0.00286058
0.00236088
0.000923536
-0.000659057
-0.00107672
-0.00100076
-0.000735157
-0.000200629
0.000757314
0.00196954
0.00317637
0.00377839
0.00308002
)
;

boundaryField
{
    floor
    {
        type            calculated;
        value           nonuniform List<scalar> 
29
(
0
0
0
0
0
0
0
0
0
0
0
0
0
0
0
0
0
0
0
0
-5.71926e-06
-1.3392e-05
-1.98322e-05
-2.25168e-05
-3.57824e-06
-4.20758e-06
-1.12359e-05
-1.5203e-05
-1.63499e-05
)
;
    }
    ceiling
    {
        type            calculated;
        value           nonuniform List<scalar> 
43
(
-3.03584e-06
-3.5692e-06
-3.26415e-06
-2.97924e-06
-2.75239e-06
-2.6196e-06
-2.77369e-06
-3.2408e-06
-4.31694e-06
-5.33075e-06
-6.1486e-06
-6.86571e-06
-7.51837e-06
-8.12871e-06
-8.71141e-06
-9.27305e-06
-9.81865e-06
-1.03493e-05
-1.08658e-05
-1.13695e-05
-1.18617e-05
-1.23422e-05
-1.2808e-05
-1.32543e-05
-1.36863e-05
-1.41506e-05
-1.47578e-05
-1.56703e-05
-1.79085e-05
-2.28748e-05
-2.30162e-05
-2.20349e-05
-2.07868e-05
-1.94071e-05
-1.7812e-05
-1.67541e-05
-1.63055e-05
-1.66292e-05
-1.75545e-05
-1.81603e-05
-3.96061e-07
-1.64931e-06
-2.24342e-06
)
;
    }
    sWall
    {
        type            calculated;
        value           uniform -0.000194726;
    }
    nWall
    {
        type            calculated;
        value           nonuniform List<scalar> 6(-5.7676e-05 -6.64462e-05 -6.75083e-05 -9.26669e-05 -0.000101406 -0.000118289);
    }
    sideWalls
    {
        type            empty;
        value           nonuniform 0();
    }
    glass1
    {
        type            calculated;
        value           nonuniform List<scalar> 9(-5.54736e-05 -0.000155299 -0.000247014 -0.000260015 -0.000313856 -0.000376956 -0.000440374 -0.000500387 -0.000552662);
    }
    glass2
    {
        type            calculated;
        value           nonuniform List<scalar> 2(-0.000330724 -0.000368944);
    }
    sun
    {
        type            calculated;
        value           uniform 0;
    }
    heatsource1
    {
        type            calculated;
        value           nonuniform List<scalar> 3(2.05981e-07 2.06104e-07 2.0611e-07);
    }
    heatsource2
    {
        type            calculated;
        value           nonuniform List<scalar> 4(5.15509e-08 5.16331e-08 0 0);
    }
    Table_master
    {
        type            calculated;
        value           nonuniform List<scalar> 9(-1.54917e-07 -1.55056e-07 -1.55116e-07 -1.55164e-07 -1.55201e-07 -1.55223e-07 -1.55234e-07 -1.55239e-07 -1.55227e-07);
    }
    Table_slave
    {
        type            calculated;
        value           nonuniform List<scalar> 9(1.53953e-07 1.54114e-07 1.5429e-07 1.54515e-07 1.54542e-07 1.54329e-07 1.54133e-07 1.53997e-07 1.53952e-07);
    }
    inlet
    {
        type            calculated;
        value           uniform -0.000561791;
    }
    outlet
    {
        type            calculated;
        value           nonuniform List<scalar> 2(0.00347434 0.00201969);
    }
}


// ************************************************************************* //
