/*--------------------------------*- C++ -*----------------------------------*\
  =========                 |
  \\      /  F ield         | OpenFOAM: The Open Source CFD Toolbox
   \\    /   O peration     | Website:  https://openfoam.org
    \\  /    A nd           | Version:  6
     \\/     M anipulation  |
\*---------------------------------------------------------------------------*/
FoamFile
{
    version     2.0;
    format      ascii;
    class       volScalarField;
    location    "90";
    object      T;
}
// * * * * * * * * * * * * * * * * * * * * * * * * * * * * * * * * * * * * * //

dimensions      [0 0 0 1 0 0 0];

internalField   nonuniform List<scalar> 
459
(
302.786
302.589
302.593
302.46
302.277
302.177
302.126
302.1
302.085
302.073
302.062
302.052
302.043
302.036
302.034
301.894
301.897
301.918
301.944
301.951
301.941
301.923
301.897
301.869
301.842
301.817
301.796
301.78
301.769
301.762
301.757
301.749
301.751
301.784
303.14
303.094
303.312
303.142
302.899
302.613
302.395
302.26
302.178
302.138
302.111
302.09
302.072
302.053
302.03
301.998
301.937
301.892
301.917
301.948
301.971
301.974
301.947
301.888
301.838
301.799
301.767
301.741
301.72
301.705
301.695
301.691
301.694
301.711
301.728
301.771
303.505
303.581
303.584
303.53
303.396
303.165
302.907
302.654
302.375
302.233
302.172
302.136
302.11
302.084
302.054
302.019
301.983
301.939
301.968
301.994
302.009
302.003
301.97
301.826
301.759
301.727
301.703
301.685
301.672
301.664
301.661
301.668
301.767
301.76
301.768
301.779
303.971
303.774
303.711
303.685
303.61
303.462
303.245
302.985
302.711
302.43
302.25
302.188
302.157
302.129
302.096
302.06
302.025
302.007
301.998
302.031
302.055
302.065
302.065
302.058
302.05
302.042
302.034
302.022
302.002
301.991
301.982
301.972
301.96
301.941
301.914
301.873
301.81
303.839
303.493
303.438
303.475
303.512
303.474
303.337
303.121
302.863
302.585
302.35
302.252
302.217
302.194
302.17
302.143
302.116
302.096
302.088
302.104
302.122
302.131
302.13
302.122
302.112
302.099
302.084
302.063
302.037
302.02
302.01
302
301.985
301.965
301.939
301.899
301.846
301.844
301.899
301.927
303.685
303.191
303.171
303.287
303.407
303.435
303.346
303.161
302.923
302.666
302.434
302.328
302.284
302.265
302.249
302.23
302.21
302.194
302.183
302.188
302.197
302.2
302.197
302.187
302.173
302.155
302.131
302.099
302.064
302.041
302.032
302.022
302.007
301.983
301.954
301.918
301.876
301.856
301.858
301.884
303.534
303.022
303.087
303.25
303.381
303.409
303.325
303.154
302.935
302.705
302.507
302.4
302.357
302.337
302.325
302.313
302.299
302.286
302.276
302.274
302.276
302.275
302.27
302.259
302.242
302.218
302.184
302.139
302.088
302.058
302.051
302.045
302.031
302.005
301.968
301.933
301.901
301.881
301.875
301.895
303.371
302.977
303.078
303.283
303.356
303.362
303.283
303.129
302.93
302.727
302.57
302.478
302.434
302.412
302.401
302.391
302.38
302.368
302.359
302.354
302.351
302.348
302.343
302.333
302.315
302.288
302.246
302.188
302.118
302.073
302.067
302.067
302.06
302.041
302.001
301.964
301.948
301.948
301.956
302.121
303.209
302.876
302.863
303.228
303.301
303.292
303.222
303.092
302.924
302.748
302.628
302.556
302.517
302.495
302.48
302.468
302.457
302.446
302.436
302.428
302.422
302.417
302.412
302.403
302.39
302.364
302.323
302.257
302.163
302.087
302.082
302.091
302.1
302.11
302.121
302.136
302.164
302.197
302.225
302.295
302.414
303.096
303.198
303.204
303.152
303.051
302.918
302.774
302.687
302.633
302.6
302.578
302.561
302.547
302.534
302.522
302.51
302.5
302.492
302.484
302.476
302.467
302.455
302.439
302.414
302.354
302.239
302.101
302.088
302.1
302.114
302.128
302.141
302.156
302.175
302.193
302.2
302.212
302.803
303.063
303.105
303.115
303.084
303.015
302.913
302.809
302.747
302.706
302.678
302.658
302.641
302.626
302.611
302.598
302.585
302.573
302.562
302.552
302.541
302.53
302.518
302.504
302.492
302.473
302.357
302.123
302.087
302.092
302.105
302.118
302.132
302.146
302.162
302.173
302.164
302.192
302.988
302.907
302.907
303.025
303.037
303.039
303.023
302.986
302.908
302.848
302.809
302.781
302.759
302.742
302.727
302.713
302.699
302.686
302.673
302.66
302.647
302.636
302.624
302.613
302.601
302.59
302.58
302.564
302.485
302.181
302.1
302.101
302.106
302.112
302.122
302.133
302.142
302.146
302.146
302.181
)
;

boundaryField
{
    floor
    {
        type            wallHeatTransfer;
        Tinf            uniform 305.2;
        alphaWall       uniform 0.24;
        value           nonuniform List<scalar> 
29
(
302.509
302.452
302.369
302.424
302.462
302.481
302.498
302.516
302.529
302.538
302.546
302.554
302.563
302.575
302.589
302.606
302.62
302.562
302.404
302.543
302.543
302.363
302.305
302.237
302.509
302.452
302.389
302.342
302.374
)
;
    }
    ceiling
    {
        type            wallHeatTransfer;
        Tinf            uniform 303.2;
        alphaWall       uniform 0.24;
        value           nonuniform List<scalar> 
43
(
303.002
302.923
302.922
303.038
303.049
303.05
303.035
303
302.929
302.874
302.84
302.816
302.798
302.784
302.773
302.762
302.751
302.74
302.73
302.72
302.71
302.701
302.692
302.683
302.674
302.666
302.659
302.648
302.581
302.304
302.224
302.22
302.217
302.216
302.218
302.222
302.229
302.235
302.241
302.278
303.209
302.885
302.817
)
;
    }
    sWall
    {
        type            wallHeatTransfer;
        Tinf            uniform 315.2;
        alphaWall       uniform 0.36;
        value           uniform 304.132;
    }
    nWall
    {
        type            wallHeatTransfer;
        Tinf            uniform 307.2;
        alphaWall       uniform 0.36;
        value           nonuniform List<scalar> 6(302.78 302.69 302.59 302.867 302.841 302.869);
    }
    sideWalls
    {
        type            empty;
    }
    glass1
    {
        type            wallHeatTransfer;
        Tinf            uniform 315.2;
        alphaWall       uniform 4.3;
        value           nonuniform List<scalar> 9(310.596 310.456 310.494 309.22 308.799 308.57 308.353 308.1 307.772);
    }
    glass2
    {
        type            wallHeatTransfer;
        Tinf            uniform 307.2;
        alphaWall       uniform 4.3;
        value           nonuniform List<scalar> 2(305.13 305.283);
    }
    sun
    {
        type            wallHeatTransfer;
        Tinf            uniform 305.2;
        alphaWall       uniform 0.24;
        value           nonuniform List<scalar> 
14
(
302.991
302.79
302.779
302.655
302.512
302.455
302.446
302.452
302.46
302.467
302.473
302.478
302.485
302.493
)
;
    }
    heatsource1
    {
        type            fixedGradient;
        gradient        uniform 0;
    }
    heatsource2
    {
        type            fixedGradient;
        gradient        uniform 0;
    }
    Table_master
    {
        type            zeroGradient;
    }
    Table_slave
    {
        type            zeroGradient;
    }
    inlet
    {
        type            fixedValue;
        value           uniform 290.15;
    }
    outlet
    {
        type            zeroGradient;
    }
}


// ************************************************************************* //
