/*--------------------------------*- C++ -*----------------------------------*\
  =========                 |
  \\      /  F ield         | OpenFOAM: The Open Source CFD Toolbox
   \\    /   O peration     | Website:  https://openfoam.org
    \\  /    A nd           | Version:  6
     \\/     M anipulation  |
\*---------------------------------------------------------------------------*/
FoamFile
{
    version     2.0;
    format      ascii;
    class       volVectorField;
    location    "90";
    object      U;
}
// * * * * * * * * * * * * * * * * * * * * * * * * * * * * * * * * * * * * * //

dimensions      [0 1 -1 0 0 0 0];

internalField   nonuniform List<vector> 
459
(
(-0.0192095 0.0899761 0)
(-0.179571 0.00162122 0)
(-0.150202 -0.0231735 0)
(-0.129909 -0.0125743 0)
(-0.124186 -0.00017975 0)
(-0.126502 0.000487783 0)
(-0.132323 -0.00376182 0)
(-0.131182 -0.00811872 0)
(-0.12297 -0.0118127 0)
(-0.109347 -0.0140247 0)
(-0.092339 -0.0155107 0)
(-0.0728054 -0.0163527 0)
(-0.0515657 -0.0172698 0)
(-0.0348965 -0.0193352 0)
(-0.0522343 -0.0210588 0)
(0.0336548 0.00858538 0)
(-0.0254136 -0.0056216 0)
(-0.00682292 -0.0104891 0)
(0.00626401 -0.0126557 0)
(0.0165622 -0.0125213 0)
(0.0251713 -0.00721421 0)
(0.0270604 -0.00260817 0)
(0.0214805 -0.00109289 0)
(0.0163373 -0.000346778 0)
(0.013277 -1.80363e-05 0)
(0.0116711 -7.75086e-05 0)
(0.0109535 -0.00030296 0)
(0.0107256 -0.000448649 0)
(0.010495 -0.000273063 0)
(0.00939138 0.000357738 0)
(0.00879008 -0.00047068 0)
(0.010593 -0.00500179 0)
(0.0341261 -0.00854594 0)
(-0.0353653 0.0149897 0)
(0.190646 0.175196 0)
(-0.0932166 -0.034186 0)
(0.0572914 -0.0778436 0)
(0.0433436 -0.0252715 0)
(0.0319486 0.0135963 0)
(0.000756888 0.0257009 0)
(-0.0454378 0.014706 0)
(-0.0819607 -0.00188384 0)
(-0.0989379 -0.0147223 0)
(-0.0975557 -0.0218191 0)
(-0.0892931 -0.0263075 0)
(-0.0769107 -0.0286763 0)
(-0.0615354 -0.0307134 0)
(-0.0443654 -0.0335904 0)
(-0.0286259 -0.036782 0)
(-0.00984297 -0.0382614 0)
(0.0217026 -0.000478844 0)
(0.110844 0.0222703 0)
(-0.0241898 0.00131876 0)
(-0.0159319 -0.0077859 0)
(-0.0155497 -0.0134962 0)
(-0.0124546 -0.0164039 0)
(-0.00477826 -0.00841222 0)
(0.00971885 0.00645932 0)
(0.00326805 0.00497026 0)
(0.00168613 0.00455508 0)
(0.00191347 0.0037935 0)
(0.00244135 0.00278497 0)
(0.00288407 0.00195272 0)
(0.00319869 0.00156299 0)
(0.00305866 0.0019496 0)
(0.000391613 0.00384004 0)
(-0.00177788 -0.000976582 0)
(-0.000794311 -0.0144892 0)
(0.0416388 -0.0174852 0)
(-0.102857 0.0314 0)
(0.458734 0.300036 0)
(0.276394 0.0105038 0)
(0.284694 -0.0347362 0)
(0.281282 0.0174106 0)
(0.242421 0.0682818 0)
(0.177284 0.0893556 0)
(0.105925 0.0845247 0)
(0.035737 0.0599828 0)
(-0.0377546 0.0115834 0)
(-0.0713248 -0.0187614 0)
(-0.0790162 -0.0312284 0)
(-0.0781647 -0.0372656 0)
(-0.0737115 -0.0420913 0)
(-0.0668632 -0.046832 0)
(-0.0590042 -0.049344 0)
(-0.0515624 -0.0448118 0)
(-0.0447837 -0.0315796 0)
(0.0750237 0.0354721 0)
(-0.048108 0.0124768 0)
(-0.0440929 -0.000749637 0)
(-0.0490871 -0.0137453 0)
(-0.0508172 -0.0233456 0)
(-0.0478212 -0.0254887 0)
(0.00126415 0.00238684 0)
(-0.0121861 -0.0010335 0)
(-0.0107099 -0.0017015 0)
(-0.00854845 -0.0027189 0)
(-0.00699137 -0.00392074 0)
(-0.00630584 -0.00477441 0)
(-0.0060691 -0.00506191 0)
(-0.00658827 -0.00393944 0)
(-0.0140496 0.00207441 0)
(0.0192695 -0.00584915 0)
(0.00649806 -0.0108681 0)
(0.0478822 -0.0122036 0)
(-0.183763 0.0410569 0)
(0.731522 -0.189188 0)
(0.400523 -0.208878 0)
(0.419525 -0.116327 0)
(0.438462 -0.00134381 0)
(0.381568 0.094073 0)
(0.296626 0.14652 0)
(0.209612 0.157534 0)
(0.127347 0.137052 0)
(0.052042 0.0930365 0)
(-0.0179539 0.029431 0)
(-0.0590368 -0.0164007 0)
(-0.0741372 -0.0315414 0)
(-0.0831841 -0.0396115 0)
(-0.09002 -0.0445718 0)
(-0.0970182 -0.0441381 0)
(-0.106119 -0.0318379 0)
(-0.117109 0.00131868 0)
(-0.114686 0.0586164 0)
(-0.0758286 0.0341698 0)
(-0.0933988 0.0196817 0)
(-0.0884524 0.00329062 0)
(-0.0927534 -0.0117776 0)
(-0.100092 -0.023134 0)
(-0.107076 -0.028013 0)
(-0.100852 -0.0209474 0)
(-0.0788188 -0.0222154 0)
(-0.0532015 -0.0269523 0)
(-0.0237681 -0.0322795 0)
(0.0180838 -0.0313766 0)
(0.0495238 -0.0265853 0)
(0.0785426 -0.0220866 0)
(0.102439 -0.0164248 0)
(0.118203 -0.00977987 0)
(0.116335 -0.00352272 0)
(0.0930772 0.00947563 0)
(0.0896558 0.0217731 0)
(-0.166474 0.0471689 0)
(0.730375 -0.49541 0)
(0.17354 -0.305927 0)
(0.258348 -0.100608 0)
(0.306745 0.0576357 0)
(0.283241 0.162563 0)
(0.232857 0.218182 0)
(0.177707 0.228984 0)
(0.121364 0.204294 0)
(0.0662587 0.154456 0)
(0.0123739 0.0877093 0)
(-0.0336938 0.0211423 0)
(-0.0612343 -0.0130467 0)
(-0.077962 -0.0276984 0)
(-0.0908151 -0.0356466 0)
(-0.102559 -0.03927 0)
(-0.11308 -0.0377458 0)
(-0.119758 -0.0282746 0)
(-0.12042 -0.0074091 0)
(-0.11034 0.0150604 0)
(-0.101843 0.0162791 0)
(-0.0944465 0.00497934 0)
(-0.0924879 -0.00761065 0)
(-0.0936302 -0.0183356 0)
(-0.093965 -0.0244574 0)
(-0.0878867 -0.025614 0)
(-0.0741264 -0.0318453 0)
(-0.0551539 -0.041156 0)
(-0.0318734 -0.0509597 0)
(-0.00246656 -0.0542142 0)
(0.0282418 -0.0477422 0)
(0.0544275 -0.0403137 0)
(0.0777024 -0.0292823 0)
(0.0954607 -0.0121959 0)
(0.10308 0.00851772 0)
(0.0958706 0.0318266 0)
(0.100181 0.0559516 0)
(0.0190557 0.0681374 0)
(0.07358 0.0494459 0)
(-0.0284986 -0.0136105 0)
(-0.309734 -0.0451704 0)
(0.684255 -0.601493 0)
(-0.0967737 -0.318548 0)
(0.102239 -0.0655819 0)
(0.156822 0.0912802 0)
(0.14271 0.192154 0)
(0.121165 0.253352 0)
(0.0991989 0.268926 0)
(0.0740172 0.245525 0)
(0.0461881 0.19496 0)
(0.0163653 0.127756 0)
(-0.015162 0.0558767 0)
(-0.0396644 0.0122982 0)
(-0.0588765 -0.011284 0)
(-0.0716909 -0.0222012 0)
(-0.0822726 -0.0260199 0)
(-0.0910863 -0.0240585 0)
(-0.0965903 -0.0169288 0)
(-0.0971402 -0.00669725 0)
(-0.0923485 0.00382393 0)
(-0.0844784 0.00611278 0)
(-0.0781827 -0.000226592 0)
(-0.0760217 -0.00962307 0)
(-0.0766056 -0.0192095 0)
(-0.0770246 -0.0272963 0)
(-0.0741882 -0.0348098 0)
(-0.0668824 -0.0454918 0)
(-0.0552647 -0.0591675 0)
(-0.0393012 -0.0730944 0)
(-0.0193624 -0.0803659 0)
(0.00531089 -0.0745989 0)
(0.0264941 -0.0660147 0)
(0.0470675 -0.053017 0)
(0.0665561 -0.0305735 0)
(0.0848447 0.00208993 0)
(0.0915596 0.0351207 0)
(0.102516 0.0651953 0)
(0.0892876 0.0749549 0)
(0.11318 0.0669723 0)
(0.126354 0.0529981 0)
(-0.10409 0.0226037 0)
(0.577482 -0.588319 0)
(-0.232984 -0.327082 0)
(0.0140877 -0.100415 0)
(0.0350598 0.108007 0)
(-0.000104061 0.195031 0)
(0.0101736 0.259005 0)
(0.0184996 0.277825 0)
(0.0212502 0.258359 0)
(0.0184244 0.211427 0)
(0.0110972 0.147545 0)
(-0.00148089 0.0803749 0)
(-0.016825 0.0316064 0)
(-0.031387 0.00358824 0)
(-0.0432391 -0.0117754 0)
(-0.0515769 -0.0182226 0)
(-0.0579268 -0.0185303 0)
(-0.0614743 -0.0141799 0)
(-0.0613082 -0.00747351 0)
(-0.0577076 -0.00151098 0)
(-0.0525286 4.13702e-05 0)
(-0.0484167 -0.00319413 0)
(-0.0477004 -0.00943853 0)
(-0.0495639 -0.0173017 0)
(-0.0525072 -0.0260746 0)
(-0.0546883 -0.0367831 0)
(-0.0548854 -0.0512197 0)
(-0.0521925 -0.0692567 0)
(-0.0450762 -0.0881183 0)
(-0.0333434 -0.099557 0)
(-0.0184158 -0.0944154 0)
(-0.00668159 -0.0857079 0)
(0.00559881 -0.0743561 0)
(0.0200979 -0.053865 0)
(0.0408348 -0.0191872 0)
(0.0645271 0.021952 0)
(0.0829538 0.0532011 0)
(0.096367 0.0612724 0)
(0.122654 0.0512928 0)
(0.164965 0.0546566 0)
(-0.0387257 0.115843 0)
(0.378704 -0.468263 0)
(-0.300621 -0.276751 0)
(-0.220812 -0.121986 0)
(-0.0981936 0.1155 0)
(-0.129781 0.168797 0)
(-0.0844264 0.229183 0)
(-0.0482992 0.256423 0)
(-0.0216805 0.246327 0)
(-0.00384204 0.206612 0)
(0.00730782 0.14814 0)
(0.0112165 0.089579 0)
(0.00823833 0.0447977 0)
(0.00105824 0.0152789 0)
(-0.00805796 -0.00303936 0)
(-0.0148167 -0.0120144 0)
(-0.019786 -0.0146515 0)
(-0.022507 -0.0130074 0)
(-0.0224665 -0.00906566 0)
(-0.0198986 -0.00525447 0)
(-0.0161868 -0.00375122 0)
(-0.0132981 -0.0049498 0)
(-0.0126952 -0.00834993 0)
(-0.0148184 -0.0136319 0)
(-0.0195312 -0.0209575 0)
(-0.0263333 -0.0316802 0)
(-0.0346595 -0.047705 0)
(-0.0426865 -0.0690479 0)
(-0.0461303 -0.0929612 0)
(-0.0436184 -0.108805 0)
(-0.0388999 -0.101331 0)
(-0.0409221 -0.089272 0)
(-0.0465415 -0.0799715 0)
(-0.0492365 -0.0672807 0)
(-0.043653 -0.0480394 0)
(-0.0137079 -0.0210117 0)
(0.0122759 0.0111065 0)
(0.0240962 0.0141906 0)
(0.0428536 0.00338508 0)
(0.123818 0.0712817 0)
(-0.514004 0.250174 0)
(0.0965626 -0.331807 0)
(-0.589359 -0.262802 0)
(-0.736193 -0.223017 0)
(-0.202586 0.00419584 0)
(-0.23607 0.104964 0)
(-0.152689 0.174567 0)
(-0.0951432 0.212161 0)
(-0.0502261 0.213323 0)
(-0.0164274 0.184257 0)
(0.0103139 0.132521 0)
(0.0268063 0.0840335 0)
(0.0345788 0.0466251 0)
(0.0355057 0.0210102 0)
(0.0324216 0.00424495 0)
(0.0269756 -0.00602094 0)
(0.0224044 -0.0108331 0)
(0.0192416 -0.0116988 0)
(0.018066 -0.0102733 0)
(0.0188249 -0.00830945 0)
(0.0206804 -0.007201 0)
(0.0224075 -0.00738569 0)
(0.0229866 -0.00874932 0)
(0.0216998 -0.0111997 0)
(0.0178283 -0.0149996 0)
(0.0103536 -0.021528 0)
(-0.00390393 -0.0352255 0)
(-0.0229565 -0.0570238 0)
(-0.0374923 -0.0851356 0)
(-0.0434725 -0.105973 0)
(-0.0493149 -0.0922137 0)
(-0.0675297 -0.0699928 0)
(-0.101486 -0.0539806 0)
(-0.14073 -0.0346338 0)
(-0.183315 -0.0077522 0)
(-0.223065 0.0251031 0)
(-0.259062 0.0550228 0)
(-0.30844 0.0764421 0)
(-0.363298 0.0859439 0)
(-0.429615 0.0844362 0)
(-0.702044 0.0705428 0)
(-1.57959 -0.24274 0)
(-0.111277 -0.145118 0)
(-0.250262 0.00827306 0)
(-0.179126 0.105224 0)
(-0.117589 0.153103 0)
(-0.0628317 0.164814 0)
(-0.0171233 0.146478 0)
(0.0225971 0.103817 0)
(0.0478769 0.0673511 0)
(0.0635427 0.0392983 0)
(0.0707846 0.0196352 0)
(0.0723379 0.00650681 0)
(0.0700173 -0.00193868 0)
(0.0663493 -0.00673811 0)
(0.0627919 -0.00875562 0)
(0.0602384 -0.00899635 0)
(0.0589545 -0.00849534 0)
(0.0586061 -0.00806321 0)
(0.0585262 -0.0080663 0)
(0.0580548 -0.00853471 0)
(0.0566185 -0.0093776 0)
(0.0535306 -0.0105535 0)
(0.0475093 -0.0124453 0)
(0.0355919 -0.0169352 0)
(0.013467 -0.0285632 0)
(-0.0103036 -0.0588725 0)
(-0.0221685 -0.0906923 0)
(-0.0366134 -0.0717093 0)
(-0.0463685 -0.0373326 0)
(-0.0757695 -0.0227874 0)
(-0.101671 -0.00778095 0)
(-0.121668 0.0138069 0)
(-0.141339 0.0409922 0)
(-0.155797 0.069357 0)
(-0.162813 0.0851102 0)
(-0.144402 0.0650294 0)
(-0.0791034 -0.0369965 0)
(-0.287021 -0.250812 0)
(-0.346477 0.0557301 0)
(-0.0497545 -0.131629 0)
(-0.192216 -0.0286888 0)
(-0.172105 0.0492295 0)
(-0.120683 0.0933809 0)
(-0.0624602 0.109997 0)
(-0.00471036 0.100094 0)
(0.0445148 0.0691253 0)
(0.0761268 0.0457998 0)
(0.0967137 0.0290134 0)
(0.107734 0.0181795 0)
(0.112016 0.0121024 0)
(0.112001 0.00930659 0)
(0.109664 0.00801631 0)
(0.106448 0.00805969 0)
(0.103189 0.00912388 0)
(0.10032 0.0108112 0)
(0.0979092 0.012763 0)
(0.0957554 0.0147759 0)
(0.0935771 0.0168327 0)
(0.0911127 0.0191328 0)
(0.0880667 0.0221433 0)
(0.0838007 0.0262023 0)
(0.0766337 0.0296213 0)
(0.0639397 0.0248137 0)
(0.0475051 -0.00877248 0)
(0.0237865 -0.0756002 0)
(-0.0262167 -0.067491 0)
(-0.0268528 0.00952686 0)
(-0.0373177 0.0359448 0)
(-0.0454504 0.0362921 0)
(-0.0489728 0.040794 0)
(-0.0459409 0.0552822 0)
(-0.0345048 0.0744549 0)
(-0.0160785 0.0896065 0)
(0.0198436 0.0792309 0)
(0.139382 0.00339972 0)
(-0.196074 -0.16338 0)
(0.23882 -0.148961 0)
(-0.229953 -0.0850409 0)
(-0.196917 0.0766197 0)
(-0.128269 -0.0490002 0)
(-0.194349 -0.0103787 0)
(-0.173704 0.0220719 0)
(-0.121753 0.0443143 0)
(-0.0574555 0.0556887 0)
(0.0254004 0.046803 0)
(0.0796029 0.0234262 0)
(0.116971 0.0055839 0)
(0.141232 -0.00906006 0)
(0.154802 -0.0214196 0)
(0.160898 -0.0321158 0)
(0.162492 -0.0416324 0)
(0.161097 -0.0496973 0)
(0.158077 -0.0567389 0)
(0.154239 -0.0630954 0)
(0.150107 -0.069045 0)
(0.145963 -0.0748067 0)
(0.141887 -0.0805262 0)
(0.137869 -0.086263 0)
(0.133948 -0.0919743 0)
(0.130377 -0.0975278 0)
(0.12773 -0.102922 0)
(0.126477 -0.108935 0)
(0.125463 -0.117559 0)
(0.118606 -0.131131 0)
(0.0900577 -0.161053 0)
(-0.0146005 -0.203272 0)
(-0.0458796 -0.182156 0)
(-0.044969 -0.156199 0)
(-0.0359705 -0.126695 0)
(-0.0184067 -0.0942272 0)
(0.0141015 -0.0524362 0)
(0.0585845 -0.0279957 0)
(0.103909 -0.020966 0)
(0.148361 -0.0413674 0)
(0.190879 -0.0869833 0)
(-0.134835 -0.159911 0)
)
;

boundaryField
{
    floor
    {
        type            noSlip;
    }
    ceiling
    {
        type            noSlip;
    }
    sWall
    {
        type            noSlip;
    }
    nWall
    {
        type            noSlip;
    }
    sideWalls
    {
        type            empty;
    }
    glass1
    {
        type            noSlip;
    }
    glass2
    {
        type            noSlip;
    }
    sun
    {
        type            noSlip;
    }
    heatsource1
    {
        type            noSlip;
    }
    heatsource2
    {
        type            noSlip;
    }
    Table_master
    {
        type            noSlip;
    }
    Table_slave
    {
        type            noSlip;
    }
    inlet
    {
        type            fixedValue;
        value           uniform (0.1 0 0);
    }
    outlet
    {
        type            zeroGradient;
    }
}


// ************************************************************************* //
