// -*- C++ -*-
// File generated by PyFoam - sorry for the ugliness

FoamFile
{
 version 2.0;
 format ascii;
 class volScalarField;
 location "900";
 object T;
}

dimensions [ 0 0 0 1 0 0 0 ];

internalField nonuniform List<scalar> 459
(
  302.57
  302.288
  302.274
  302.27
  302.266
  302.262
  302.257
  302.251
  302.242
  302.232
  302.222
  302.216
  302.214
  302.218
  302.231
  302.372
  302.346
  302.336
  302.342
  302.348
  302.354
  302.36
  302.366
  302.371
  302.377
  302.383
  302.388
  302.394
  302.399
  302.405
  302.411
  302.418
  302.426
  302.453
  302.755
  302.329
  302.301
  302.302
  302.304
  302.303
  302.3
  302.29
  302.272
  302.249
  302.226
  302.209
  302.2
  302.2
  302.203
  302.202
  302.198
  302.375
  302.325
  302.319
  302.325
  302.334
  302.341
  302.345
  302.347
  302.35
  302.352
  302.354
  302.356
  302.358
  302.361
  302.365
  302.371
  302.379
  302.392
  302.435
  302.95
  302.382
  302.336
  302.345
  302.357
  302.366
  302.367
  302.354
  302.322
  302.28
  302.239
  302.209
  302.195
  302.193
  302.199
  302.203
  302.204
  302.306
  302.301
  302.31
  302.326
  302.343
  302.356
  302.356
  302.355
  302.355
  302.356
  302.356
  302.357
  302.357
  302.358
  302.36
  302.364
  302.371
  302.383
  302.428
  303.148
  302.45
  302.375
  302.39
  302.418
  302.443
  302.455
  302.437
  302.385
  302.315
  302.253
  302.209
  302.188
  302.188
  302.198
  302.209
  302.217
  302.234
  302.256
  302.287
  302.319
  302.349
  302.376
  302.396
  302.413
  302.428
  302.441
  302.452
  302.461
  302.468
  302.474
  302.479
  302.481
  302.443
  302.411
  302.397
  302.431
  303.341
  302.537
  302.424
  302.435
  302.477
  302.522
  302.55
  302.518
  302.438
  302.339
  302.256
  302.202
  302.18
  302.183
  302.201
  302.223
  302.245
  302.27
  302.3
  302.336
  302.372
  302.405
  302.435
  302.458
  302.48
  302.497
  302.512
  302.523
  302.53
  302.532
  302.531
  302.527
  302.517
  302.489
  302.448
  302.417
  302.43
  302.54
  302.588
  302.593
  303.516
  302.651
  302.51
  302.501
  302.548
  302.614
  302.624
  302.561
  302.454
  302.337
  302.241
  302.183
  302.164
  302.177
  302.209
  302.247
  302.285
  302.322
  302.361
  302.402
  302.44
  302.475
  302.503
  302.526
  302.545
  302.561
  302.572
  302.58
  302.584
  302.582
  302.575
  302.564
  302.548
  302.521
  302.483
  302.444
  302.437
  302.482
  302.504
  302.546
  303.68
  302.833
  302.696
  302.677
  302.703
  302.729
  302.674
  302.556
  302.411
  302.278
  302.183
  302.138
  302.139
  302.175
  302.232
  302.292
  302.347
  302.397
  302.442
  302.482
  302.518
  302.549
  302.573
  302.592
  302.606
  302.617
  302.625
  302.628
  302.628
  302.623
  302.61
  302.595
  302.575
  302.549
  302.515
  302.478
  302.46
  302.473
  302.487
  302.522
  303.916
  303.286
  303.139
  303.065
  302.987
  302.839
  302.64
  302.43
  302.25
  302.125
  302.067
  302.071
  302.119
  302.197
  302.289
  302.372
  302.439
  302.492
  302.533
  302.567
  302.595
  302.617
  302.635
  302.648
  302.657
  302.662
  302.664
  302.664
  302.66
  302.653
  302.641
  302.624
  302.606
  302.583
  302.557
  302.531
  302.522
  302.543
  302.57
  302.721
  304.255
  303.956
  303.663
  303.345
  302.926
  302.5
  302.162
  301.942
  301.842
  301.843
  301.917
  302.031
  302.156
  302.283
  302.409
  302.493
  302.547
  302.586
  302.616
  302.64
  302.659
  302.674
  302.684
  302.691
  302.694
  302.695
  302.693
  302.69
  302.686
  302.681
  302.677
  302.676
  302.677
  302.685
  302.702
  302.731
  302.773
  302.814
  302.84
  302.904
  293.307
  295.078
  297.147
  298.672
  299.764
  300.574
  301.188
  301.647
  301.993
  302.233
  302.378
  302.48
  302.554
  302.604
  302.639
  302.664
  302.683
  302.698
  302.709
  302.716
  302.72
  302.723
  302.723
  302.723
  302.722
  302.721
  302.72
  302.72
  302.72
  302.722
  302.727
  302.737
  302.754
  302.778
  302.809
  302.838
  302.861
  302.886
  294.533
  296.997
  299.203
  300.326
  301.031
  301.518
  301.865
  302.127
  302.324
  302.462
  302.553
  302.615
  302.658
  302.687
  302.707
  302.722
  302.732
  302.739
  302.743
  302.746
  302.747
  302.747
  302.747
  302.746
  302.746
  302.746
  302.745
  302.746
  302.746
  302.748
  302.752
  302.759
  302.77
  302.787
  302.808
  302.832
  302.833
  302.867
  298.311
  298.235
  298.229
  300.547
  301.464
  301.853
  302.09
  302.269
  302.408
  302.516
  302.599
  302.659
  302.701
  302.729
  302.749
  302.762
  302.771
  302.777
  302.781
  302.783
  302.783
  302.782
  302.781
  302.78
  302.778
  302.776
  302.775
  302.773
  302.771
  302.77
  302.769
  302.769
  302.77
  302.772
  302.777
  302.789
  302.801
  302.809
  302.814
  302.855
)
;

boundaryField
{
  floor
  {
    type wallHeatTransfer;
    Tinf uniform 305.2;
    alphaWall uniform 0.24;
    value nonuniform List<scalar> 29
(
  302.52
  302.872
  302.791
  302.746
  302.748
  302.761
  302.78
  302.804
  302.831
  302.857
  302.883
  302.908
  302.932
  302.956
  302.978
  303.001
  303.023
  303.049
  303.069
  303.124
  303.124
  303.007
  302.947
  302.916
  302.52
  302.872
  302.861
  302.623
  302.473
)
;
  }
  ceiling
  {
    type wallHeatTransfer;
    Tinf uniform 303.2;
    alphaWall uniform 0.24;
    value nonuniform List<scalar> 43
(
  298.629
  298.543
  298.527
  300.698
  301.567
  301.936
  302.16
  302.33
  302.463
  302.568
  302.649
  302.709
  302.751
  302.781
  302.802
  302.817
  302.828
  302.835
  302.84
  302.842
  302.843
  302.843
  302.842
  302.84
  302.838
  302.835
  302.833
  302.83
  302.827
  302.823
  302.821
  302.818
  302.817
  302.817
  302.819
  302.828
  302.837
  302.846
  302.852
  302.891
  304.208
  303.927
  295.043
)
;
  }
  sWall
  {
    type wallHeatTransfer;
    Tinf uniform 315.2;
    alphaWall uniform 0.36;
    value uniform 299.912;
  }
  nWall
  {
    type wallHeatTransfer;
    Tinf uniform 307.2;
    alphaWall uniform 0.36;
    value nonuniform List<scalar> 6
(
  303.404
  303.337
  303.236
  303.49
  303.467
  303.508
)
;
  }
  sideWalls
  {
    type empty;
  }
  glass1
  {
    type wallHeatTransfer;
    Tinf uniform 315.2;
    alphaWall uniform 4.3;
    value nonuniform List<scalar> 9
(
  311.051
  310.363
  309.938
  309.618
  309.355
  309.117
  308.951
  309.04
  309.295
)
;
  }
  glass2
  {
    type wallHeatTransfer;
    Tinf uniform 307.2;
    alphaWall uniform 4.3;
    value nonuniform List<scalar> 2
(
  305.415
  305.563
)
;
  }
  sun
  {
    type wallHeatTransfer;
    Tinf uniform 305.2;
    alphaWall uniform 0.24;
    value nonuniform List<scalar> 14
(
  302.834
  302.56
  302.543
  302.529
  302.517
  302.506
  302.494
  302.482
  302.47
  302.46
  302.453
  302.454
  302.463
  302.485
)
;
  }
  heatsource1
  {
    type fixedGradient;
    gradient uniform 0;
  }
  heatsource2
  {
    type fixedGradient;
    gradient uniform 0;
  }
  Table_master
  {
    type zeroGradient;
  }
  Table_slave
  {
    type zeroGradient;
  }
  inlet
  {
    type fixedValue;
    value uniform 290.15;
  }
  outlet
  {
    type zeroGradient;
  }
} 	// ************************************************************************* //

