/*--------------------------------*- C++ -*----------------------------------*\
  =========                 |
  \\      /  F ield         | OpenFOAM: The Open Source CFD Toolbox
   \\    /   O peration     | Website:  https://openfoam.org
    \\  /    A nd           | Version:  6
     \\/     M anipulation  |
\*---------------------------------------------------------------------------*/
FoamFile
{
    version     2.0;
    format      ascii;
    class       volScalarField;
    location    "1900";
    object      nut;
}
// * * * * * * * * * * * * * * * * * * * * * * * * * * * * * * * * * * * * * //

dimensions      [0 2 -1 0 0 0 0];

internalField   nonuniform List<scalar> 
459
(
0.00113575
0.00124379
0.00126772
0.00133027
0.00138888
0.00144438
0.00149966
0.00155063
0.00158493
0.00159681
0.00158122
0.00153515
0.00145784
0.0013542
0.00123796
0.000509867
0.00061569
0.000691355
0.000688005
0.000663802
0.00063198
0.000592019
0.000552546
0.000516835
0.000485211
0.000457265
0.000432482
0.000410467
0.000390739
0.000372607
0.000355196
0.000337326
0.000326934
0.000300399
0.00154667
0.00387431
0.00374865
0.00437783
0.0049971
0.00560739
0.00612609
0.00653151
0.00688853
0.00716897
0.00733619
0.00735205
0.00715762
0.00660109
0.00507468
0.00127189
0.000723528
0.000543389
0.00113422
0.00157747
0.00190077
0.00207275
0.00206324
0.00164737
0.00141725
0.00125355
0.0011283
0.00102887
0.000947923
0.000878236
0.000813194
0.000749936
0.000693458
0.000642801
0.000769171
0.000401196
0.00188581
0.00529586
0.00468052
0.00586858
0.00647245
0.00692219
0.00727002
0.00756091
0.00786671
0.00817416
0.00844349
0.0086285
0.00867513
0.00849388
0.00783231
0.00593707
0.00129685
0.00105524
0.00153362
0.00197649
0.00237994
0.00265457
0.00257984
0.000843345
0.000743178
0.000662803
0.000598072
0.000545449
0.000502208
0.000466391
0.000436749
0.000412758
0.000444863
0.000512959
0.000873824
0.000470404
0.00220885
0.00673619
0.00473036
0.00622131
0.00675083
0.00694961
0.0070923
0.00726739
0.00752894
0.00786037
0.00820878
0.00851802
0.00872617
0.0087591
0.00855681
0.00782311
0.00538248
0.00153043
0.00190286
0.00246421
0.00301421
0.00345009
0.00370914
0.00346055
0.00094892
0.000861568
0.00079873
0.000750411
0.000709052
0.000671699
0.00063584
0.000598447
0.000555467
0.000521705
0.000539121
0.00103323
0.000521042
0.00253658
0.008565
0.0052345
0.0060397
0.00670714
0.00678112
0.00675724
0.00688352
0.00712152
0.00747382
0.00787046
0.0082367
0.00848276
0.00855277
0.00843861
0.00810577
0.00736113
0.00609579
0.00565308
0.00550645
0.0054511
0.00540443
0.00531899
0.00507654
0.00424096
0.00383438
0.00359238
0.00340337
0.00320818
0.00293278
0.00257874
0.00216303
0.00171229
0.00126861
0.000940921
0.000999494
0.000684008
0.000640695
0.000764494
0.000855936
0.00288257
0.0105482
0.00716481
0.00615056
0.00663387
0.00676829
0.00670927
0.00679119
0.00697794
0.00730146
0.00772408
0.00813423
0.008404
0.0084521
0.00828454
0.0079837
0.00764414
0.00731948
0.00713065
0.00696867
0.00677083
0.00654091
0.00628478
0.00597893
0.00556204
0.00519818
0.00488338
0.00459054
0.00430177
0.00399303
0.00361546
0.00315591
0.00261789
0.00203579
0.00153283
0.00113933
0.00091336
0.000811873
0.00117373
0.00089756
0.00318988
0.0118961
0.00986587
0.00791046
0.0075778
0.00731774
0.00703095
0.00691165
0.00702731
0.00737166
0.00785308
0.00831231
0.00858607
0.00858076
0.00832223
0.00796443
0.00771526
0.00765585
0.00764562
0.00751202
0.00723312
0.0068631
0.00644249
0.00599324
0.00553921
0.00513541
0.00478089
0.00446304
0.00417866
0.00393133
0.00371893
0.00341341
0.00299355
0.00248979
0.00202606
0.00160034
0.00133134
0.00126412
0.00129068
0.00102246
0.00324289
0.0103848
0.00937891
0.00868054
0.00800631
0.00732921
0.00690684
0.00684856
0.00714302
0.00768988
0.00831566
0.00881182
0.00901106
0.00885647
0.00843726
0.0079981
0.00779585
0.00781073
0.00771169
0.00737438
0.00687238
0.00628823
0.00569045
0.00513941
0.00467519
0.00430325
0.00400339
0.00376215
0.00357743
0.00345241
0.00338974
0.00335577
0.00315085
0.00282985
0.00256655
0.00246328
0.00261001
0.0030552
0.00393004
0.00154875
0.0031512
0.00371545
0.00409318
0.0041847
0.0043964
0.00486772
0.00561499
0.00658655
0.00765478
0.00864314
0.00936453
0.00966284
0.00949336
0.00896301
0.00832606
0.00792213
0.0076693
0.0074037
0.00697035
0.00635579
0.00565168
0.00495994
0.00436121
0.00389103
0.00353933
0.00327418
0.00306631
0.00289759
0.00275649
0.00263427
0.00252436
0.00242718
0.00235395
0.00230893
0.00230805
0.00234008
0.00234109
0.00225421
0.00209601
0.00143824
0.00144467
0.0036673
0.00665686
0.0086224
0.00993244
0.0107449
0.0110968
0.0110533
0.0106898
0.0100844
0.00923095
0.00833856
0.00763447
0.00714444
0.00666732
0.00608499
0.00541066
0.00472186
0.00408909
0.00356372
0.00317215
0.00289477
0.00269799
0.00255428
0.00244647
0.00236545
0.00230732
0.00227203
0.00226284
0.00227923
0.00231256
0.00236191
0.00242245
0.00247567
0.00249718
0.00248834
0.00220684
0.00118904
0.00218541
0.0067539
0.00935145
0.0100474
0.0102748
0.0101455
0.00968571
0.00901202
0.00823825
0.00746973
0.0067443
0.00612698
0.00561517
0.00511392
0.00457479
0.0040363
0.00354632
0.00313468
0.00280888
0.00256111
0.00237628
0.00224575
0.00215743
0.00210341
0.00207889
0.00207982
0.00210098
0.00213864
0.00219926
0.00227872
0.00237401
0.00247963
0.00258334
0.00267134
0.00274372
0.00275596
0.00190498
0.00122761
0.00195856
0.00207758
0.00216328
0.00233421
0.00224493
0.00216064
0.0020915
0.0019905
0.00185342
0.00168841
0.00150412
0.00131615
0.00114667
0.00100992
0.000906864
0.000831083
0.000775295
0.000734221
0.000704801
0.00068537
0.000674743
0.000671967
0.000675642
0.000684363
0.000697721
0.000715554
0.000737917
0.00076511
0.000797819
0.000836851
0.000881746
0.000932975
0.000990873
0.00105581
0.00112751
0.00120989
0.00123232
0.00112267
0.0010462
0.00118657
)
;

boundaryField
{
    floor
    {
        type            nutkWallFunction;
        Cmu             0.09;
        kappa           0.41;
        E               9.8;
        value           nonuniform List<scalar> 
29
(
0.00014836
6.09771e-05
7.43077e-05
8.36664e-05
8.32547e-05
8.02736e-05
7.63337e-05
7.1352e-05
6.63908e-05
6.18648e-05
5.78243e-05
5.42264e-05
5.10127e-05
4.81382e-05
4.55459e-05
4.31483e-05
4.0832e-05
3.84392e-05
3.70402e-05
3.34407e-05
3.34406e-05
4.69214e-05
5.59206e-05
6.23991e-05
0.00014836
6.0977e-05
6.52335e-05
0.000127196
0.000181535
)
;
    }
    ceiling
    {
        type            nutkWallFunction;
        Cmu             0.09;
        kappa           0.41;
        E               9.8;
        value           nonuniform List<scalar> 
43
(
0.000228689
0.000241622
0.000250888
0.000269395
0.000259866
0.000250801
0.000243331
0.000232361
0.000217369
0.000199158
0.000178586
0.000157312
0.000137837
0.000121885
0.000109701
0.000100639
9.39064e-05
8.89129e-05
8.53158e-05
8.29302e-05
8.16223e-05
8.12802e-05
8.1733e-05
8.28065e-05
8.44475e-05
8.66325e-05
8.93635e-05
9.26711e-05
9.66313e-05
0.000101332
0.000106708
0.000112803
0.000119645
0.000127265
0.000135618
0.00014514
0.00014772
0.000135056
0.000126142
0.000142454
0.000355825
0.000413955
0.000253067
)
;
    }
    sWall
    {
        type            nutkWallFunction;
        Cmu             0.09;
        kappa           0.41;
        E               9.8;
        value           uniform 0.000228754;
    }
    nWall
    {
        type            nutkWallFunction;
        Cmu             0.09;
        kappa           0.41;
        E               9.8;
        value           nonuniform List<scalar> 6(0.000103623 0.000108596 0.000123364 0.000142749 0.00014719 0.000142465);
    }
    sideWalls
    {
        type            empty;
    }
    glass1
    {
        type            nutkWallFunction;
        Cmu             0.09;
        kappa           0.41;
        E               9.8;
        value           nonuniform List<scalar> 9(0.000136699 0.00018361 0.000221267 0.000256453 0.000291591 0.000328171 0.000360282 0.000365798 0.000356288);
    }
    glass2
    {
        type            nutkWallFunction;
        Cmu             0.09;
        kappa           0.41;
        E               9.8;
        value           nonuniform List<scalar> 2(0.000183685 0.000171248);
    }
    sun
    {
        type            nutkWallFunction;
        Cmu             0.09;
        kappa           0.41;
        E               9.8;
        value           nonuniform List<scalar> 
14
(
0.000136573
0.00014903
0.000151773
0.000158917
0.000165576
0.000171854
0.00017808
0.000183798
0.000187635
0.00018896
0.00018722
0.000182063
0.00017337
0.000161639
)
;
    }
    heatsource1
    {
        type            nutkWallFunction;
        Cmu             0.09;
        kappa           0.41;
        E               9.8;
        value           nonuniform List<scalar> 3(7.74166e-05 9.25965e-05 0.00010362);
    }
    heatsource2
    {
        type            nutkWallFunction;
        Cmu             0.09;
        kappa           0.41;
        E               9.8;
        value           nonuniform List<scalar> 4(0.000152244 8.76091e-05 8.76091e-05 0.000155098);
    }
    Table_master
    {
        type            nutkWallFunction;
        Cmu             0.09;
        kappa           0.41;
        E               9.8;
        value           nonuniform List<scalar> 9(0.00010211 9.00053e-05 8.01524e-05 7.2113e-05 6.54995e-05 6.00066e-05 5.54125e-05 5.15772e-05 4.84491e-05);
    }
    Table_slave
    {
        type            nutkWallFunction;
        Cmu             0.09;
        kappa           0.41;
        E               9.8;
        value           nonuniform List<scalar> 9(0.000114689 0.000104294 9.67409e-05 9.08855e-05 8.5838e-05 8.12492e-05 7.68151e-05 7.2159e-05 6.67633e-05);
    }
    inlet
    {
        type            calculated;
        value           uniform 0.000100623;
    }
    outlet
    {
        type            calculated;
        value           nonuniform List<scalar> 2(0.00195856 0.00207758);
    }
}


// ************************************************************************* //
