/*--------------------------------*- C++ -*----------------------------------*\
  =========                 |
  \\      /  F ield         | OpenFOAM: The Open Source CFD Toolbox
   \\    /   O peration     | Website:  https://openfoam.org
    \\  /    A nd           | Version:  6
     \\/     M anipulation  |
\*---------------------------------------------------------------------------*/
FoamFile
{
    version     2.0;
    format      ascii;
    class       volScalarField;
    location    "2500";
    object      epsilon;
}
// * * * * * * * * * * * * * * * * * * * * * * * * * * * * * * * * * * * * * //

dimensions      [0 2 -3 0 0 0 0];

internalField   nonuniform List<scalar> 
459
(
0.0005352
0.000705143
0.000750012
0.000867734
0.000988957
0.00111453
0.00125113
0.00138141
0.00147075
0.00149671
0.00144397
0.00131012
0.00110727
0.00086779
0.00064062
4.92114e-05
8.55093e-05
0.00012322
0.000124754
0.000113419
9.86536e-05
8.11271e-05
6.57948e-05
5.36945e-05
4.43166e-05
3.70112e-05
3.12571e-05
2.66719e-05
2.29746e-05
1.98986e-05
1.72201e-05
1.47345e-05
1.32766e-05
1.01967e-05
0.00133497
0.00187295
0.000667165
0.000651024
0.000689295
0.000750908
0.000839817
0.00094511
0.00103464
0.00107961
0.0010625
0.000981822
0.000848453
0.00069063
0.000567944
0.000697715
0.000163631
5.70926e-05
0.000135103
0.000147739
0.000136808
0.00011786
9.9454e-05
9.03318e-05
7.28168e-05
5.73367e-05
4.51574e-05
3.58356e-05
2.87304e-05
2.32965e-05
1.91536e-05
1.60872e-05
1.41823e-05
1.33664e-05
3.40968e-05
2.32911e-05
0.00240236
0.00447813
0.000829416
0.000630352
0.000671981
0.000770477
0.000910809
0.00106847
0.00119428
0.00125439
0.00123828
0.00115248
0.00100913
0.000843213
0.000697512
0.000629918
0.000788473
0.000393839
0.000300032
0.000234887
0.00018601
0.000148757
0.000126439
0.000233339
0.000158877
0.000112049
8.18363e-05
6.17247e-05
4.79184e-05
3.81865e-05
3.12225e-05
2.62716e-05
1.98048e-05
1.66407e-05
6.53546e-05
3.69599e-05
0.00383916
0.00915696
0.00131547
0.000660213
0.000685075
0.000833586
0.00106231
0.00129071
0.00144071
0.00149344
0.00145721
0.00134714
0.00116867
0.000975849
0.000805589
0.000694571
0.000679444
0.00128019
0.000734948
0.000449597
0.000305165
0.000222134
0.000170133
0.000145833
0.000334003
0.000248938
0.000197231
0.000162489
0.000136146
0.000115249
9.72655e-05
8.063e-05
6.4056e-05
3.73015e-05
2.50604e-05
0.000113527
5.00339e-05
0.00578991
0.0161437
0.00259572
0.000840165
0.000771791
0.000998522
0.00140699
0.00168948
0.00181683
0.0018249
0.00174291
0.00158334
0.00136039
0.0011089
0.000868939
0.000674261
0.000543828
0.000493874
0.000407112
0.000325224
0.000258104
0.000205126
0.000164331
0.000136415
0.000130404
0.000119602
0.000108935
9.85743e-05
8.81362e-05
7.78316e-05
6.78415e-05
5.84954e-05
4.99464e-05
3.90434e-05
3.03642e-05
7.95347e-05
5.66913e-05
9.15417e-05
0.000156297
0.00021971
0.00847224
0.0238132
0.00579933
0.00173047
0.00133977
0.00178037
0.00223692
0.00239513
0.00239127
0.00230284
0.00214667
0.00191521
0.00161399
0.00127641
0.000952545
0.000688691
0.000508131
0.000405526
0.000339756
0.000284294
0.000233247
0.000189242
0.000154255
0.000129675
0.000116583
0.000109707
0.000104788
9.94804e-05
9.26088e-05
8.33066e-05
7.2134e-05
6.09641e-05
5.09059e-05
4.20937e-05
3.76089e-05
5.67942e-05
5.91611e-05
7.08134e-05
0.000291959
0.00025344
0.0114522
0.028336
0.0117239
0.0054891
0.0042225
0.00414726
0.00387959
0.00355746
0.00325944
0.00299017
0.00270515
0.00235624
0.00193436
0.00147755
0.00104947
0.000713187
0.000493257
0.000370896
0.000301186
0.000249073
0.000203655
0.000166289
0.00013881
0.000121774
0.000114427
0.000113231
0.000114243
0.000115428
0.000115541
0.000112881
0.000103561
9.1708e-05
8.00882e-05
7.02246e-05
6.78592e-05
7.97311e-05
0.000101934
0.000163084
0.00040355
0.000375841
0.0120256
0.0295672
0.0171347
0.0122836
0.00962303
0.00749515
0.00599069
0.00500247
0.00436223
0.00389457
0.0034431
0.00291121
0.00229649
0.00166247
0.00109341
0.000681142
0.000436706
0.000310695
0.000245158
0.000200042
0.000164752
0.000139133
0.000123169
0.000115974
0.000115984
0.000121022
0.000129366
0.00014055
0.000154718
0.000171823
0.000190666
0.000201898
0.000214094
0.000238723
0.000287985
0.000436301
0.000795886
0.00156955
0.00533526
0.0013036
0.0110385
0.0180642
0.0145047
0.0111392
0.00877562
0.00731033
0.00644488
0.00592978
0.00554014
0.0050733
0.00439474
0.00349875
0.00253071
0.00163614
0.000896223
0.000495854
0.000316567
0.000230581
0.000182705
0.000150604
0.000128234
0.000114389
0.000108031
0.000107912
0.000112846
0.000122013
0.000135362
0.000153785
0.000179005
0.000213616
0.000261213
0.000327121
0.000418837
0.0005576
0.000762303
0.00104271
0.00137022
0.00166826
0.00189279
0.00104263
0.00362799
0.00645371
0.0083782
0.0089064
0.00891319
0.00843999
0.00741516
0.0059546
0.00426364
0.00263323
0.00156856
0.000900559
0.000511544
0.000315106
0.000220134
0.000170751
0.000141395
0.000121985
0.00010914
0.000101619
9.87061e-05
9.97845e-05
0.000104367
0.000112289
0.000123877
0.000140046
0.000162428
0.000193689
0.000237996
0.000301254
0.000391028
0.000517782
0.00068979
0.000902023
0.00112812
0.00133593
0.0012051
0.000581767
0.00368593
0.00860497
0.00854078
0.00705192
0.00605209
0.00502517
0.00392601
0.00285578
0.00190999
0.00117587
0.000709278
0.000437963
0.000290415
0.000214053
0.000173772
0.000150438
0.000135222
0.000124556
0.000117044
0.000112069
0.00010939
0.000109191
0.000111797
0.000117604
0.000127275
0.00014182
0.000162725
0.000192165
0.000233226
0.000290257
0.000369222
0.000476677
0.000615542
0.000779105
0.000951643
0.00119974
0.000635147
0.000639012
0.00265882
0.00317655
0.0035881
0.00451291
0.00398433
0.00354339
0.00319071
0.00272158
0.00216911
0.00161527
0.00112414
0.000745956
0.000494625
0.000342039
0.00025123
0.000195433
0.000159396
0.000135278
0.00011923
0.000109227
0.000103953
0.00010249
0.000104292
0.000108808
0.00011577
0.00012534
0.000137905
0.00015414
0.000175164
0.000202271
0.000236685
0.00028039
0.000335894
0.000406393
0.00049508
0.000611316
0.000646418
0.000486424
0.000394692
0.000580972
)
;

boundaryField
{
    floor
    {
        Cmu             0.09;
        kappa           0.41;
        E               9.8;
        type            epsilonWallFunction;
        value           nonuniform List<scalar> 
29
(
0.00064062
4.92114e-05
8.55093e-05
0.00012322
0.000124754
0.000113419
9.86536e-05
8.11271e-05
6.57948e-05
5.36945e-05
4.43166e-05
3.70112e-05
3.12571e-05
2.66719e-05
2.29746e-05
1.98986e-05
1.72201e-05
1.47345e-05
1.32766e-05
1.01967e-05
1.01967e-05
2.32911e-05
3.69599e-05
5.00339e-05
0.00064062
4.92114e-05
5.70926e-05
0.000393839
0.00128019
)
;
    }
    ceiling
    {
        Cmu             0.09;
        kappa           0.41;
        E               9.8;
        type            epsilonWallFunction;
        value           nonuniform List<scalar> 
43
(
0.00265882
0.00317655
0.0035881
0.00451291
0.00398433
0.00354339
0.00319071
0.00272158
0.00216911
0.00161527
0.00112414
0.000745956
0.000494625
0.000342039
0.00025123
0.000195433
0.000159396
0.000135278
0.00011923
0.000109227
0.000103953
0.00010249
0.000104292
0.000108808
0.00011577
0.00012534
0.000137905
0.00015414
0.000175164
0.000202271
0.000236685
0.00028039
0.000335894
0.000406393
0.00049508
0.000611316
0.000646418
0.000486424
0.000394692
0.000580972
0.0110385
0.0180642
0.00368593
)
;
    }
    sWall
    {
        Cmu             0.09;
        kappa           0.41;
        E               9.8;
        type            epsilonWallFunction;
        value           uniform 0.00265882;
    }
    nWall
    {
        Cmu             0.09;
        kappa           0.41;
        E               9.8;
        type            epsilonWallFunction;
        value           nonuniform List<scalar> 6(0.00021971 0.00025344 0.000375841 0.000581767 0.000639012 0.000580972);
    }
    sideWalls
    {
        type            empty;
    }
    glass1
    {
        Cmu             0.09;
        kappa           0.41;
        E               9.8;
        type            epsilonWallFunction;
        value           nonuniform List<scalar> 9(0.0005352 0.00133497 0.00240236 0.00383916 0.00578991 0.00847224 0.0114522 0.0120256 0.0110385);
    }
    glass2
    {
        Cmu             0.09;
        kappa           0.41;
        E               9.8;
        type            epsilonWallFunction;
        value           nonuniform List<scalar> 2(0.0013036 0.00104263);
    }
    sun
    {
        Cmu             0.09;
        kappa           0.41;
        E               9.8;
        type            epsilonWallFunction;
        value           nonuniform List<scalar> 
14
(
0.0005352
0.000705143
0.000750012
0.000867734
0.000988957
0.00111453
0.00125113
0.00138141
0.00147075
0.00149671
0.00144397
0.00131012
0.00110727
0.00086779
)
;
    }
    heatsource1
    {
        Cmu             0.09;
        kappa           0.41;
        E               9.8;
        type            epsilonWallFunction;
        value           nonuniform List<scalar> 3(9.15417e-05 0.000156297 0.00021971);
    }
    heatsource2
    {
        Cmu             0.09;
        kappa           0.41;
        E               9.8;
        type            epsilonWallFunction;
        value           nonuniform List<scalar> 4(0.000697715 0.000163631 0.000163631 0.000788473);
    }
    Table_master
    {
        Cmu             0.09;
        kappa           0.41;
        E               9.8;
        type            epsilonWallFunction;
        value           nonuniform List<scalar> 9(0.000233339 0.000158877 0.000112049 8.18363e-05 6.17247e-05 4.79184e-05 3.81865e-05 3.12225e-05 2.62716e-05);
    }
    Table_slave
    {
        Cmu             0.09;
        kappa           0.41;
        E               9.8;
        type            epsilonWallFunction;
        value           nonuniform List<scalar> 9(0.000334003 0.000248938 0.000197231 0.000162489 0.000136146 0.000115249 9.72655e-05 8.063e-05 6.4056e-05);
    }
    inlet
    {
        type            turbulentMixingLengthDissipationRateInlet;
        mixingLength    0.01;
        phi             phi;
        k               k;
        value           uniform 0.000101881;
    }
    outlet
    {
        type            zeroGradient;
    }
}


// ************************************************************************* //
