/*--------------------------------*- C++ -*----------------------------------*\
  =========                 |
  \\      /  F ield         | OpenFOAM: The Open Source CFD Toolbox
   \\    /   O peration     | Website:  https://openfoam.org
    \\  /    A nd           | Version:  6
     \\/     M anipulation  |
\*---------------------------------------------------------------------------*/
FoamFile
{
    version     2.0;
    format      ascii;
    class       volScalarField;
    location    "2200";
    object      epsilon;
}
// * * * * * * * * * * * * * * * * * * * * * * * * * * * * * * * * * * * * * //

dimensions      [0 2 -3 0 0 0 0];

internalField   nonuniform List<scalar> 
459
(
0.000519233
0.000682101
0.000722426
0.000834851
0.000950258
0.001069
0.00119676
0.00132303
0.0014128
0.00144469
0.00140262
0.00128325
0.00109839
0.000879369
0.000670166
4.80333e-05
8.49668e-05
0.000120651
0.000119365
0.000107711
9.33598e-05
7.70478e-05
6.28516e-05
5.15876e-05
4.27965e-05
3.59013e-05
3.04349e-05
2.60684e-05
2.2522e-05
1.95531e-05
1.69521e-05
1.45209e-05
1.31371e-05
1.01208e-05
0.00131051
0.00185418
0.000646037
0.000628367
0.00066384
0.000720224
0.00080103
0.000900185
0.000988044
0.00103723
0.00102841
0.000957809
0.000834822
0.000686737
0.000575865
0.000727274
0.00013672
5.80196e-05
0.000137539
0.000145982
0.000132934
0.00011316
9.46873e-05
8.52311e-05
6.89963e-05
5.46876e-05
4.33641e-05
3.46349e-05
2.79324e-05
2.27902e-05
1.88481e-05
1.59432e-05
1.41754e-05
1.34378e-05
3.50144e-05
2.36655e-05
0.00237456
0.00448142
0.000811509
0.000609073
0.00064589
0.000735866
0.000864517
0.00101459
0.00114087
0.00120905
0.00120379
0.00112931
0.00099765
0.000840582
0.000698578
0.000631891
0.000775831
0.000424589
0.00030824
0.000233994
0.000181305
0.000142984
0.000120369
0.000220659
0.000151672
0.000107996
7.96002e-05
6.05534e-05
4.73817e-05
3.80369e-05
3.13032e-05
2.64822e-05
2.01074e-05
1.696e-05
6.67876e-05
3.77154e-05
0.0038148
0.00920194
0.00130169
0.000638724
0.000655923
0.000790286
0.000998554
0.00122215
0.00137894
0.00144539
0.00142263
0.00132521
0.0011623
0.000974007
0.000804732
0.000690595
0.000671389
0.00127663
0.000723178
0.000435404
0.000291602
0.000209969
0.000159682
0.000136539
0.000313479
0.000236699
0.000190232
0.000158961
0.000134928
0.000115228
9.81725e-05
8.2209e-05
6.60304e-05
3.88669e-05
2.60061e-05
0.000114607
5.11062e-05
0.00577604
0.0162363
0.00258648
0.000814943
0.000732331
0.000929816
0.00130709
0.00160288
0.00174812
0.00177441
0.00170844
0.00156451
0.00135615
0.00111361
0.000876045
0.000677754
0.000540059
0.000483723
0.0003933
0.000309211
0.000241531
0.000189687
0.000151252
0.000126121
0.000121776
0.000113192
0.000104562
9.59276e-05
8.68056e-05
7.73624e-05
6.81776e-05
5.95865e-05
5.16848e-05
4.0918e-05
3.16077e-05
8.05928e-05
5.75042e-05
9.27541e-05
0.000158197
0.000222047
0.0084754
0.0239282
0.00577859
0.00168442
0.00125294
0.00158701
0.00210434
0.00230148
0.00232199
0.00224996
0.00211101
0.001899
0.0016166
0.00129179
0.000971284
0.000701683
0.000510688
0.000397944
0.000325334
0.000266249
0.000214582
0.000172438
0.000140868
0.000120229
0.000110594
0.000106517
0.000103848
0.000100301
9.45683e-05
8.56596e-05
7.43296e-05
6.30358e-05
5.28896e-05
4.38659e-05
3.85559e-05
5.7545e-05
5.91758e-05
7.14611e-05
0.000295459
0.000256037
0.0114842
0.0284509
0.0116573
0.00535438
0.00398745
0.00397639
0.00377068
0.0034824
0.00319912
0.00294009
0.00267148
0.00234598
0.00194795
0.00150718
0.00108252
0.000736229
0.000500654
0.000364225
0.000285935
0.000230546
0.00018574
0.000151504
0.000128367
0.000115816
0.000112339
0.000114201
0.000117679
0.000120827
0.000122192
0.000119684
0.000108856
9.55613e-05
8.26913e-05
7.17697e-05
6.8047e-05
7.97636e-05
0.000104332
0.000176911
0.000416553
0.000390362
0.0120658
0.0298125
0.0171722
0.0122811
0.00964943
0.00752513
0.00599687
0.00497995
0.00431862
0.00384727
0.00341407
0.00291397
0.0023296
0.00171378
0.00114699
0.000714843
0.00044747
0.000304578
0.000230991
0.000184871
0.000151821
0.000129928
0.000118088
0.000114769
0.000118108
0.000125965
0.000136811
0.000150262
0.000166385
0.000184901
0.000204171
0.000212246
0.000222787
0.000246455
0.000296307
0.000460402
0.000896347
0.001817
0.00537021
0.00143938
0.0110711
0.0181456
0.0145822
0.0111669
0.00877326
0.007271
0.00637049
0.00583229
0.00544126
0.00500289
0.00438186
0.00354373
0.00261022
0.00172737
0.000989874
0.000530393
0.000324546
0.000227037
0.000175058
0.000143111
0.000123008
0.000112129
0.000108734
0.000111278
0.000118548
0.000129855
0.000145292
0.000165828
0.000193223
0.000230056
0.000279855
0.000347901
0.000442195
0.000587525
0.000800961
0.00108835
0.00141071
0.00167864
0.00187231
0.00112364
0.00373685
0.00658361
0.00842376
0.00890357
0.00888973
0.00842434
0.00744379
0.00605848
0.00447473
0.00284153
0.00171083
0.000993364
0.00056461
0.000339123
0.000230803
0.000175909
0.000144845
0.00012539
0.00011334
0.000107159
0.000105746
0.000108152
0.000113838
0.00012272
0.000135201
0.000152264
0.000175637
0.000208153
0.000254273
0.000319963
0.000412315
0.000540437
0.000706576
0.000890405
0.00103514
0.00106843
0.000937064
0.000588958
0.00370737
0.00845639
0.00846796
0.00702804
0.00609566
0.00511981
0.00404455
0.00298264
0.00203677
0.00127753
0.000777344
0.000481699
0.000319391
0.000235503
0.00019222
0.000167568
0.000151292
0.000139332
0.000130278
0.00012391
0.00012051
0.000120084
0.000122781
0.000129018
0.000139512
0.00015534
0.000178081
0.000210061
0.000254608
0.000316326
0.000401377
0.00051585
0.000659997
0.000823953
0.000945845
0.00105264
0.000805793
0.000611086
0.00266691
0.00318259
0.00359286
0.00451102
0.00400756
0.00356941
0.00323476
0.00278579
0.00224642
0.00169571
0.00119642
0.000799709
0.000527618
0.000359594
0.000259673
0.000199359
0.000161658
0.000137545
0.000122405
0.000113786
0.000110231
0.000110623
0.00011384
0.000119615
0.000127939
0.00013902
0.000153284
0.000171447
0.000194701
0.000224773
0.000262599
0.00031028
0.00037042
0.000446444
0.000542023
0.000688555
0.000735027
0.000682143
0.0005539
0.000435035
)
;

boundaryField
{
    floor
    {
        Cmu             0.09;
        kappa           0.41;
        E               9.8;
        type            epsilonWallFunction;
        value           nonuniform List<scalar> 
29
(
0.000670166
4.80333e-05
8.49668e-05
0.000120651
0.000119365
0.000107711
9.33598e-05
7.70478e-05
6.28516e-05
5.15876e-05
4.27965e-05
3.59013e-05
3.04349e-05
2.60684e-05
2.2522e-05
1.95531e-05
1.69521e-05
1.45209e-05
1.31371e-05
1.01208e-05
1.01208e-05
2.36655e-05
3.77154e-05
5.11062e-05
0.000670166
4.80333e-05
5.80196e-05
0.000424589
0.00127663
)
;
    }
    ceiling
    {
        Cmu             0.09;
        kappa           0.41;
        E               9.8;
        type            epsilonWallFunction;
        value           nonuniform List<scalar> 
43
(
0.00266691
0.00318259
0.00359286
0.00451102
0.00400756
0.00356941
0.00323476
0.00278579
0.00224642
0.00169571
0.00119642
0.000799709
0.000527618
0.000359594
0.000259673
0.000199359
0.000161658
0.000137545
0.000122405
0.000113786
0.000110231
0.000110623
0.00011384
0.000119615
0.000127939
0.00013902
0.000153284
0.000171447
0.000194701
0.000224773
0.000262599
0.00031028
0.00037042
0.000446444
0.000542023
0.000688555
0.000735027
0.000682143
0.0005539
0.000435035
0.0110711
0.0181456
0.00370737
)
;
    }
    sWall
    {
        Cmu             0.09;
        kappa           0.41;
        E               9.8;
        type            epsilonWallFunction;
        value           uniform 0.00266691;
    }
    nWall
    {
        Cmu             0.09;
        kappa           0.41;
        E               9.8;
        type            epsilonWallFunction;
        value           nonuniform List<scalar> 6(0.000222047 0.000256037 0.000390362 0.000588958 0.000611086 0.000435035);
    }
    sideWalls
    {
        type            empty;
    }
    glass1
    {
        Cmu             0.09;
        kappa           0.41;
        E               9.8;
        type            epsilonWallFunction;
        value           nonuniform List<scalar> 9(0.000519233 0.00131051 0.00237456 0.0038148 0.00577604 0.0084754 0.0114842 0.0120658 0.0110711);
    }
    glass2
    {
        Cmu             0.09;
        kappa           0.41;
        E               9.8;
        type            epsilonWallFunction;
        value           nonuniform List<scalar> 2(0.00143938 0.00112364);
    }
    sun
    {
        Cmu             0.09;
        kappa           0.41;
        E               9.8;
        type            epsilonWallFunction;
        value           nonuniform List<scalar> 
14
(
0.000519233
0.000682101
0.000722426
0.000834851
0.000950258
0.001069
0.00119676
0.00132303
0.0014128
0.00144469
0.00140262
0.00128325
0.00109839
0.000879369
)
;
    }
    heatsource1
    {
        Cmu             0.09;
        kappa           0.41;
        E               9.8;
        type            epsilonWallFunction;
        value           nonuniform List<scalar> 3(9.27541e-05 0.000158197 0.000222047);
    }
    heatsource2
    {
        Cmu             0.09;
        kappa           0.41;
        E               9.8;
        type            epsilonWallFunction;
        value           nonuniform List<scalar> 4(0.000727274 0.00013672 0.00013672 0.000775831);
    }
    Table_master
    {
        Cmu             0.09;
        kappa           0.41;
        E               9.8;
        type            epsilonWallFunction;
        value           nonuniform List<scalar> 9(0.000220659 0.000151672 0.000107996 7.96002e-05 6.05534e-05 4.73817e-05 3.80369e-05 3.13032e-05 2.64822e-05);
    }
    Table_slave
    {
        Cmu             0.09;
        kappa           0.41;
        E               9.8;
        type            epsilonWallFunction;
        value           nonuniform List<scalar> 9(0.000313479 0.000236699 0.000190232 0.000158961 0.000134928 0.000115228 9.81725e-05 8.2209e-05 6.60304e-05);
    }
    inlet
    {
        type            turbulentMixingLengthDissipationRateInlet;
        mixingLength    0.01;
        phi             phi;
        k               k;
        value           uniform 0.000101881;
    }
    outlet
    {
        type            zeroGradient;
    }
}


// ************************************************************************* //
