// -*- C++ -*-
// File generated by PyFoam - sorry for the ugliness

FoamFile
{
 version 2.0;
 format ascii;
 class volScalarField;
 location "2200";
 object T;
}

dimensions [ 0 0 0 1 0 0 0 ];

internalField nonuniform List<scalar> 459
(
  302.689
  302.409
  302.394
  302.389
  302.385
  302.381
  302.376
  302.369
  302.361
  302.35
  302.34
  302.332
  302.327
  302.328
  302.336
  302.469
  302.443
  302.433
  302.436
  302.442
  302.447
  302.452
  302.457
  302.462
  302.467
  302.472
  302.477
  302.482
  302.486
  302.491
  302.496
  302.501
  302.508
  302.533
  302.874
  302.45
  302.422
  302.422
  302.424
  302.423
  302.419
  302.411
  302.394
  302.371
  302.347
  302.328
  302.315
  302.311
  302.312
  302.312
  302.31
  302.472
  302.423
  302.415
  302.419
  302.426
  302.432
  302.435
  302.437
  302.439
  302.441
  302.442
  302.444
  302.446
  302.448
  302.451
  302.455
  302.463
  302.474
  302.514
  303.069
  302.503
  302.456
  302.464
  302.476
  302.484
  302.486
  302.477
  302.449
  302.408
  302.366
  302.332
  302.311
  302.304
  302.306
  302.31
  302.313
  302.398
  302.396
  302.405
  302.418
  302.432
  302.443
  302.443
  302.443
  302.443
  302.443
  302.443
  302.443
  302.443
  302.444
  302.444
  302.448
  302.453
  302.463
  302.506
  303.265
  302.57
  302.495
  302.507
  302.534
  302.558
  302.573
  302.562
  302.517
  302.451
  302.385
  302.334
  302.305
  302.297
  302.302
  302.312
  302.322
  302.338
  302.358
  302.385
  302.413
  302.439
  302.461
  302.477
  302.491
  302.502
  302.513
  302.522
  302.529
  302.534
  302.539
  302.542
  302.543
  302.511
  302.485
  302.473
  302.507
  303.457
  302.657
  302.543
  302.55
  302.588
  302.632
  302.664
  302.646
  302.578
  302.481
  302.393
  302.33
  302.295
  302.288
  302.299
  302.318
  302.339
  302.364
  302.392
  302.424
  302.457
  302.486
  302.51
  302.53
  302.548
  302.562
  302.573
  302.581
  302.587
  302.588
  302.586
  302.581
  302.573
  302.549
  302.515
  302.489
  302.505
  302.601
  302.645
  302.652
  303.63
  302.771
  302.628
  302.615
  302.655
  302.714
  302.741
  302.695
  302.599
  302.484
  302.381
  302.31
  302.276
  302.275
  302.298
  302.332
  302.367
  302.404
  302.442
  302.479
  302.515
  302.545
  302.569
  302.588
  302.603
  302.615
  302.624
  302.63
  302.632
  302.63
  302.623
  302.612
  302.598
  302.575
  302.543
  302.511
  302.507
  302.548
  302.567
  302.607
  303.792
  302.951
  302.813
  302.788
  302.804
  302.839
  302.802
  302.7
  302.563
  302.427
  302.32
  302.258
  302.242
  302.262
  302.307
  302.362
  302.415
  302.465
  302.509
  302.548
  302.581
  302.608
  302.629
  302.644
  302.655
  302.664
  302.669
  302.671
  302.67
  302.664
  302.653
  302.638
  302.621
  302.598
  302.569
  302.538
  302.524
  302.536
  302.549
  302.583
  304.025
  303.4
  303.251
  303.17
  303.102
  302.974
  302.793
  302.592
  302.408
  302.269
  302.191
  302.174
  302.203
  302.264
  302.343
  302.423
  302.491
  302.547
  302.589
  302.622
  302.647
  302.667
  302.681
  302.691
  302.698
  302.702
  302.704
  302.702
  302.698
  302.692
  302.681
  302.665
  302.648
  302.629
  302.607
  302.584
  302.578
  302.598
  302.624
  302.776
  304.36
  304.064
  303.767
  303.455
  303.087
  302.684
  302.345
  302.108
  301.982
  301.954
  302.001
  302.096
  302.209
  302.324
  302.438
  302.531
  302.59
  302.632
  302.662
  302.685
  302.702
  302.715
  302.723
  302.728
  302.731
  302.732
  302.731
  302.728
  302.725
  302.721
  302.718
  302.719
  302.721
  302.73
  302.749
  302.779
  302.821
  302.862
  302.887
  302.951
  293.366
  295.282
  297.245
  298.709
  299.773
  300.574
  301.183
  301.641
  301.981
  302.242
  302.4
  302.508
  302.586
  302.641
  302.677
  302.703
  302.721
  302.735
  302.744
  302.751
  302.755
  302.757
  302.758
  302.759
  302.759
  302.759
  302.759
  302.76
  302.762
  302.765
  302.771
  302.782
  302.799
  302.824
  302.854
  302.882
  302.903
  302.925
  294.554
  297.003
  299.189
  300.299
  301.003
  301.498
  301.855
  302.125
  302.328
  302.478
  302.577
  302.643
  302.689
  302.719
  302.74
  302.754
  302.764
  302.77
  302.774
  302.777
  302.779
  302.78
  302.781
  302.782
  302.782
  302.783
  302.784
  302.785
  302.787
  302.79
  302.795
  302.802
  302.814
  302.832
  302.852
  302.875
  302.873
  302.905
  298.277
  298.201
  298.196
  300.513
  301.439
  301.838
  302.083
  302.269
  302.415
  302.528
  302.616
  302.68
  302.725
  302.755
  302.775
  302.789
  302.798
  302.804
  302.807
  302.809
  302.81
  302.811
  302.81
  302.81
  302.81
  302.809
  302.809
  302.808
  302.808
  302.807
  302.807
  302.808
  302.81
  302.813
  302.819
  302.832
  302.843
  302.851
  302.854
  302.894
)
;

boundaryField
{
  floor
  {
    type wallHeatTransfer;
    Tinf uniform 305.2;
    alphaWall uniform 0.24;
    value nonuniform List<scalar> 29
(
  302.608
  302.959
  302.877
  302.834
  302.838
  302.853
  302.871
  302.895
  302.92
  302.946
  302.97
  302.994
  303.017
  303.039
  303.06
  303.081
  303.102
  303.126
  303.144
  303.197
  303.197
  303.076
  303.016
  302.984
  302.608
  302.959
  302.941
  302.697
  302.568
)
;
  }
  ceiling
  {
    type wallHeatTransfer;
    Tinf uniform 303.2;
    alphaWall uniform 0.24;
    value nonuniform List<scalar> 43
(
  298.599
  298.513
  298.497
  300.666
  301.543
  301.921
  302.153
  302.33
  302.469
  302.578
  302.663
  302.727
  302.773
  302.804
  302.827
  302.842
  302.852
  302.86
  302.864
  302.867
  302.868
  302.868
  302.868
  302.867
  302.865
  302.864
  302.862
  302.86
  302.858
  302.856
  302.855
  302.853
  302.853
  302.854
  302.857
  302.866
  302.876
  302.884
  302.889
  302.926
  304.308
  304.03
  295.066
)
;
  }
  sWall
  {
    type wallHeatTransfer;
    Tinf uniform 315.2;
    alphaWall uniform 0.36;
    value uniform 299.889;
  }
  nWall
  {
    type wallHeatTransfer;
    Tinf uniform 307.2;
    alphaWall uniform 0.36;
    value nonuniform List<scalar> 6
(
  303.458
  303.395
  303.299
  303.526
  303.504
  303.546
)
;
  }
  sideWalls
  {
    type empty;
  }
  glass1
  {
    type wallHeatTransfer;
    Tinf uniform 315.2;
    alphaWall uniform 4.3;
    value nonuniform List<scalar> 9
(
  311.123
  310.437
  310.01
  309.69
  309.425
  309.186
  309.018
  309.105
  309.357
)
;
  }
  glass2
  {
    type wallHeatTransfer;
    Tinf uniform 307.2;
    alphaWall uniform 4.3;
    value nonuniform List<scalar> 2
(
  305.448
  305.588
)
;
  }
  sun
  {
    type wallHeatTransfer;
    Tinf uniform 305.2;
    alphaWall uniform 0.24;
    value nonuniform List<scalar> 14
(
  302.944
  302.673
  302.655
  302.642
  302.629
  302.618
  302.606
  302.595
  302.583
  302.572
  302.564
  302.562
  302.567
  302.582
)
;
  }
  heatsource1
  {
    type fixedGradient;
    gradient uniform 0;
  }
  heatsource2
  {
    type fixedGradient;
    gradient uniform 0;
  }
  Table_master
  {
    type zeroGradient;
  }
  Table_slave
  {
    type zeroGradient;
  }
  inlet
  {
    type fixedValue;
    value uniform 290.15;
  }
  outlet
  {
    type zeroGradient;
  }
} 	// ************************************************************************* //

