/*--------------------------------*- C++ -*----------------------------------*\
  =========                 |
  \\      /  F ield         | OpenFOAM: The Open Source CFD Toolbox
   \\    /   O peration     | Website:  https://openfoam.org
    \\  /    A nd           | Version:  6
     \\/     M anipulation  |
\*---------------------------------------------------------------------------*/
FoamFile
{
    version     2.0;
    format      ascii;
    class       volScalarField;
    location    "180";
    object      alphat;
}
// * * * * * * * * * * * * * * * * * * * * * * * * * * * * * * * * * * * * * //

dimensions      [1 -1 -1 0 0 0 0];

internalField   nonuniform List<scalar> 
459
(
0.00158714
0.00177733
0.00195115
0.00185278
0.00156479
0.00133185
0.00110702
0.000985733
0.000889189
0.000811166
0.000757794
0.000721578
0.00069446
0.000672946
0.000654924
0.000463099
0.000517383
0.000519806
0.00042201
0.000318903
0.000251759
0.000230645
0.000236781
0.000250029
0.000250096
0.000235568
0.000218304
0.000216922
0.000289205
0.000330661
0.00042134
0.000476956
0.000465887
0.000415632
0.00164026
0.00310339
0.00457268
0.00629675
0.00669169
0.00617871
0.00506925
0.00369088
0.00308575
0.00316423
0.00322894
0.00299813
0.00266038
0.00222579
0.00160472
0.000706876
0.000534797
0.000606314
0.00123178
0.00139879
0.00139777
0.00103344
0.000726982
0.000577685
0.000576636
0.000657921
0.000624159
0.000476768
0.000322004
0.000267501
0.000406898
0.000665817
0.00131152
0.00145715
0.00155365
0.000555881
0.00238702
0.00306524
0.00343086
0.00393533
0.00483247
0.00558599
0.00591697
0.00573646
0.00442917
0.00383077
0.00411063
0.00392167
0.00341304
0.00280269
0.0020989
0.00140041
0.000782146
0.000904
0.00244643
0.00223455
0.00196604
0.00161826
0.00119805
0.000486892
0.000391486
0.000340823
0.00030673
0.000278738
0.000253252
0.000314667
0.000516402
0.00066862
0.00152396
0.0015006
0.00121802
0.000685564
0.00380643
0.00432758
0.00424004
0.00411836
0.00431779
0.00489005
0.00556484
0.00603675
0.00562649
0.00468068
0.00491397
0.00499024
0.00447455
0.00375328
0.00289302
0.0020205
0.00136112
0.00106987
0.00252884
0.00267101
0.00246657
0.0021098
0.00172154
0.00126778
0.000861758
0.000877838
0.000897511
0.000917728
0.000938045
0.000958883
0.000981802
0.00100097
0.00102294
0.00211608
0.00282713
0.00311368
0.00111367
0.00413051
0.00520049
0.00488511
0.00447171
0.00437442
0.00473624
0.00542513
0.00613295
0.00617323
0.00560346
0.00581351
0.00631655
0.00623583
0.00597958
0.00565984
0.00527857
0.0048961
0.00461481
0.00457179
0.00445087
0.00433989
0.0042326
0.00412501
0.00403848
0.00399177
0.00403188
0.00407745
0.004119
0.00415563
0.00419393
0.00424856
0.00432124
0.00442259
0.00456521
0.00458793
0.00438779
0.00367224
0.00150208
0.0013413
0.00122772
0.00437623
0.00573967
0.00518114
0.0045028
0.00433427
0.00465929
0.00538993
0.00622526
0.00643335
0.00603227
0.0063942
0.00713004
0.00731523
0.00732162
0.0072871
0.00718805
0.00700398
0.00675168
0.0064648
0.00615971
0.00589062
0.00568821
0.00554383
0.00543839
0.00535683
0.00529377
0.00523772
0.0051799
0.00511815
0.00506221
0.0050302
0.00503411
0.00507183
0.00511803
0.00514784
0.00509656
0.00474588
0.00423214
0.00278941
0.00147817
0.0046352
0.00563557
0.00442965
0.00429909
0.00429838
0.00468259
0.00544687
0.00628985
0.00651108
0.00620319
0.00658596
0.007422
0.00774613
0.00787818
0.00796476
0.00798055
0.00789332
0.00770147
0.00743359
0.0071359
0.00685922
0.00663546
0.00646419
0.00632683
0.00620487
0.00609177
0.00598074
0.00585603
0.00570232
0.00551958
0.00532595
0.00514691
0.0049991
0.00486747
0.00470521
0.00444057
0.00400951
0.00349084
0.00290731
0.00142269
0.00497507
0.00548729
0.004443
0.00402847
0.00450317
0.00493604
0.00560577
0.00632529
0.00651637
0.00626795
0.00656223
0.00729456
0.00768679
0.00787858
0.00801929
0.00809515
0.00807856
0.00796026
0.00775891
0.00751599
0.00728202
0.00709646
0.0069726
0.00689937
0.00685366
0.00681659
0.00677575
0.00671311
0.00660209
0.00642167
0.00615739
0.00578447
0.00531757
0.0047984
0.0042737
0.00379151
0.00337075
0.00297603
0.0025838
0.00162795
0.00553212
0.00646535
0.00828653
0.0041308
0.00479339
0.00557309
0.00598078
0.00647891
0.00661621
0.00634146
0.00633291
0.00675005
0.00712994
0.00733971
0.0074796
0.00756702
0.00759062
0.00753837
0.00741414
0.00724229
0.00706185
0.00691434
0.00683285
0.00683747
0.00693063
0.00708825
0.0072697
0.00744191
0.00757926
0.00764684
0.00761346
0.00750571
0.00735933
0.00721613
0.00704615
0.00660574
0.00569139
0.00488088
0.00466038
0.00180882
0.0135021
0.00690645
0.00442289
0.00639885
0.00662967
0.00687096
0.0068421
0.00638247
0.00611466
0.00612758
0.00622699
0.00628638
0.00632529
0.00635353
0.00636575
0.00634907
0.0062944
0.00620453
0.00609554
0.00599285
0.00592651
0.005929
0.00603261
0.00625893
0.00659647
0.00699631
0.00737558
0.00764957
0.00781217
0.0078732
0.00785564
0.00779288
0.00770423
0.00756168
0.00718396
0.00626446
0.00575057
0.00178631
0.00561358
0.00376951
0.00600984
0.0065717
0.00667818
0.00670156
0.00629018
0.00570713
0.00527703
0.00501857
0.00484076
0.00468123
0.00455787
0.00447227
0.00441616
0.00437687
0.00434165
0.00430176
0.0042552
0.00420747
0.00417075
0.00416339
0.00421045
0.00434329
0.00459135
0.00496369
0.00541223
0.00586881
0.00625726
0.00653438
0.00668987
0.00673077
0.00666373
0.00646495
0.00590796
0.00503213
0.00463916
0.00157397
0.00268871
0.00325449
0.00394982
0.00191085
0.00188203
0.00205592
0.00208235
0.00201311
0.00188044
0.00175167
0.00164119
0.00154662
0.00146501
0.0013956
0.00133515
0.00128172
0.00123409
0.00119133
0.00115263
0.0011173
0.00108474
0.0010546
0.00102683
0.00100173
0.000980079
0.000963299
0.000953568
0.000953819
0.000970783
0.00101048
0.0010721
0.00114813
0.00122511
0.00128812
0.00132467
0.00132486
0.00130552
0.00127288
0.00127372
0.00120274
)
;

boundaryField
{
    floor
    {
        type            compressible::alphatWallFunction;
        Prt             0.85;
        value           nonuniform List<scalar> 
29
(
9.25208e-05
6.35363e-05
7.1882e-05
7.22612e-05
5.71862e-05
4.07595e-05
2.96671e-05
2.60855e-05
2.71172e-05
2.93469e-05
2.93666e-05
2.69269e-05
2.3994e-05
2.37493e-05
3.58468e-05
4.2595e-05
5.70003e-05
6.56375e-05
6.39318e-05
5.61151e-05
5.61144e-05
7.76823e-05
9.70091e-05
0.000158147
9.25197e-05
6.35355e-05
8.53136e-05
0.000128676
0.000152061
)
;
    }
    ceiling
    {
        type            compressible::alphatWallFunction;
        Prt             0.85;
        value           nonuniform List<scalar> 
43
(
0.00036555
0.000436234
0.0005214
0.000265651
0.000261876
0.000284569
0.000287995
0.000278986
0.000261641
0.000244683
0.000230025
0.000217393
0.000206422
0.000197037
0.000188821
0.000181525
0.000174991
0.000169101
0.000163751
0.000158847
0.000154312
0.000150101
0.000146207
0.000142676
0.000139623
0.00013725
0.00013587
0.000135903
0.000138301
0.000143894
0.000152529
0.000163105
0.000173734
0.000182379
0.000187372
0.000187401
0.000184763
0.0001803
0.000180414
0.000170659
0.000710003
0.000818613
0.000719537
)
;
    }
    sWall
    {
        type            compressible::alphatWallFunction;
        Prt             0.85;
        value           uniform 0.000364444;
    }
    nWall
    {
        type            compressible::alphatWallFunction;
        Prt             0.85;
        value           nonuniform List<scalar> 6(0.000173716 0.000207815 0.000200332 0.000248867 0.000220675 0.000170316);
    }
    sideWalls
    {
        type            empty;
    }
    glass1
    {
        type            compressible::alphatWallFunction;
        Prt             0.85;
        value           nonuniform List<scalar> 9(0.000217825 0.000225008 0.000321423 0.000496988 0.000535948 0.000565274 0.00059601 0.000636119 0.000701371);
    }
    glass2
    {
        type            compressible::alphatWallFunction;
        Prt             0.85;
        value           nonuniform List<scalar> 2(0.000226384 0.000250268);
    }
    sun
    {
        type            compressible::alphatWallFunction;
        Prt             0.85;
        value           nonuniform List<scalar> 
14
(
0.000222714
0.000247955
0.000270769
0.000257866
0.000219668
0.000188208
0.000157253
0.00014026
0.000126558
0.000115357
0.000107621
0.000102335
9.83564e-05
9.51859e-05
)
;
    }
    heatsource1
    {
        type            compressible::alphatWallFunction;
        Prt             0.85;
        value           nonuniform List<scalar> 3(0.000211351 0.000189616 0.000174107);
    }
    heatsource2
    {
        type            compressible::alphatWallFunction;
        Prt             0.85;
        value           nonuniform List<scalar> 4(0.000100326 7.46589e-05 7.4658e-05 0.0001113);
    }
    Table_master
    {
        type            compressible::alphatWallFunction;
        Prt             0.85;
        value           nonuniform List<scalar> 9(6.73222e-05 5.24614e-05 4.43876e-05 3.88684e-05 3.42768e-05 3.00391e-05 4.01022e-05 7.18269e-05 9.46806e-05);
    }
    Table_slave
    {
        type            compressible::alphatWallFunction;
        Prt             0.85;
        value           nonuniform List<scalar> 9(0.000122793 0.000125098 0.000127911 0.000130795 0.000133686 0.000136644 0.000139887 0.000142589 0.000145674);
    }
    inlet
    {
        type            fixedValue;
        value           uniform 1.94e-05;
    }
    outlet
    {
        type            zeroGradient;
    }
}


// ************************************************************************* //
