/*--------------------------------*- C++ -*----------------------------------*\
  =========                 |
  \\      /  F ield         | OpenFOAM: The Open Source CFD Toolbox
   \\    /   O peration     | Website:  https://openfoam.org
    \\  /    A nd           | Version:  6
     \\/     M anipulation  |
\*---------------------------------------------------------------------------*/
FoamFile
{
    version     2.0;
    format      ascii;
    class       volScalarField;
    location    "180";
    object      epsilon;
}
// * * * * * * * * * * * * * * * * * * * * * * * * * * * * * * * * * * * * * //

dimensions      [0 2 -3 0 0 0 0];

internalField   nonuniform List<scalar> 
459
(
0.000908005
0.00127254
0.0016825
0.00143596
0.000862389
0.000530904
0.000304611
0.000214988
0.00015776
0.00011974
9.76117e-05
8.42675e-05
7.51149e-05
6.83443e-05
6.29999e-05
2.2249e-05
3.10411e-05
3.14941e-05
1.68727e-05
7.27411e-06
3.56721e-06
2.73472e-06
2.95674e-06
3.48194e-06
3.48747e-06
2.91558e-06
2.32008e-06
2.27424e-06
5.39061e-06
8.05693e-06
1.66794e-05
2.42045e-05
2.25585e-05
1.60191e-05
0.00100654
0.00244315
0.00404803
0.00556007
0.00513066
0.00348997
0.0015048
0.000546487
0.000227784
0.000107496
7.16727e-05
6.47364e-05
6.61703e-05
6.79017e-05
6.69938e-05
7.92023e-05
3.42862e-05
4.99889e-05
7.28164e-05
5.16726e-05
2.9537e-05
1.6862e-05
1.14171e-05
8.04209e-06
6.63049e-06
7.24855e-06
6.68477e-06
4.52449e-06
2.83106e-06
3.64385e-06
1.2255e-05
2.38486e-05
4.1856e-05
5.34291e-05
6.92931e-05
3.834e-05
0.00311531
0.00454025
0.00426637
0.00398958
0.00396683
0.0036847
0.00308573
0.00227758
0.000686361
0.000195282
9.04183e-05
7.25555e-05
7.52776e-05
8.26848e-05
8.98709e-05
9.76433e-05
0.000107295
0.000165647
0.000145315
7.45795e-05
6.13e-05
5.96863e-05
5.87465e-05
2.57991e-05
1.34007e-05
8.84105e-06
6.44486e-06
4.8373e-06
3.62773e-06
6.92124e-06
3.07258e-05
6.67964e-05
7.13639e-05
7.94763e-05
8.74733e-05
7.19412e-05
0.0126708
0.0102447
0.00747496
0.00547439
0.00424509
0.00357705
0.00309333
0.00256263
0.00156892
0.00040445
0.000133127
8.85501e-05
8.59894e-05
9.35331e-05
0.000106801
0.000131233
0.000181052
0.000274733
0.000157703
8.24634e-05
6.97656e-05
7.23766e-05
8.23516e-05
0.000101909
0.000143751
0.000151966
0.000162433
0.000173682
0.0001855
0.000198163
0.000212738
0.000225425
0.000240524
0.000167096
0.000165177
0.00024819
0.000309383
0.0161689
0.0134492
0.00825386
0.00531224
0.0038713
0.00318909
0.00280663
0.0024451
0.00169011
0.000557723
0.000182392
0.00010781
9.75645e-05
9.92047e-05
0.000101194
0.000101387
0.00010048
9.59055e-05
7.59887e-05
6.66773e-05
6.54141e-05
6.91656e-05
7.61538e-05
8.57919e-05
9.77957e-05
0.000110503
0.000125731
0.0001439
0.000165483
0.000191401
0.000223508
0.00026171
0.000308551
0.000354975
0.000424258
0.00047464
0.000521498
0.000760231
0.000541318
0.000415664
0.019207
0.017037
0.00820158
0.00432538
0.0030434
0.00258782
0.00238009
0.00217372
0.00154973
0.000570776
0.000203687
0.000123713
0.000115569
0.000121641
0.000126898
0.000126803
0.000120166
0.000108766
9.60039e-05
8.68068e-05
8.27301e-05
8.38889e-05
8.93255e-05
9.84003e-05
0.000110946
0.000127447
0.000148812
0.000175672
0.000209088
0.000251284
0.000306169
0.00037918
0.000477052
0.000605752
0.000772871
0.000965488
0.00107311
0.00112488
0.000675143
0.000726189
0.0227948
0.0217082
0.00794445
0.00281271
0.00223301
0.0020594
0.00198197
0.00185615
0.00133056
0.00053216
0.000204697
0.000134751
0.000134481
0.000148947
0.000161639
0.000167142
0.000163566
0.00015231
0.000137359
0.000123343
0.000113707
0.000109928
0.000111963
0.000119604
0.000133213
0.000153944
0.000182863
0.000220432
0.0002671
0.000324563
0.000396952
0.00049082
0.000613031
0.000765922
0.000939816
0.00109903
0.00117577
0.00114798
0.000960029
0.000647692
0.028148
0.0305547
0.0179177
0.00264392
0.00178006
0.00172729
0.00167914
0.00156464
0.00112293
0.000485266
0.000210729
0.000152673
0.000159811
0.000181648
0.000200839
0.000211844
0.000212543
0.000203467
0.000187885
0.000170453
0.000155477
0.000145683
0.00014227
0.00014604
0.000158512
0.000182339
0.000220062
0.000273165
0.000341245
0.000422032
0.000511785
0.000604444
0.00069403
0.000779303
0.000864415
0.00096093
0.00108197
0.00122187
0.00134341
0.000973081
0.0386486
0.0615293
0.0749442
0.0111177
0.00195047
0.00165641
0.00151023
0.0013601
0.000979692
0.000472563
0.000263017
0.00020809
0.000210149
0.000228709
0.000246264
0.000256929
0.000258609
0.000251187
0.000236634
0.000218465
0.000200475
0.000185604
0.000175703
0.000172181
0.00017712
0.000194713
0.000228536
0.000282975
0.000361785
0.000464562
0.000591473
0.000742231
0.00091632
0.00111595
0.00133449
0.0015182
0.0016257
0.00189423
0.00273669
0.00133594
0.180119
0.0515587
0.00411536
0.00190324
0.0015134
0.00130771
0.000924224
0.000562816
0.000393591
0.000328833
0.000309751
0.000307532
0.000308967
0.000308068
0.000302464
0.00029161
0.000276222
0.000257981
0.000239049
0.00022149
0.000206972
0.000196897
0.00019288
0.000197407
0.000213491
0.000244828
0.000295159
0.000368302
0.000465325
0.000580308
0.000703083
0.000821879
0.000923243
0.000991299
0.0009816
0.000888653
0.00143259
0.00128504
0.0401953
0.00564306
0.00254846
0.00180354
0.00153901
0.00131376
0.000962508
0.000706503
0.000565994
0.000492607
0.000452591
0.000426368
0.000404565
0.000383427
0.000361692
0.000339179
0.000316204
0.000293365
0.000271433
0.00025122
0.000233483
0.000218937
0.000208408
0.000203103
0.000204773
0.000215946
0.000239804
0.000281041
0.000341422
0.00041677
0.00049608
0.000564169
0.000605233
0.000605305
0.000563832
0.000532013
0.00105434
0.000879252
0.00442141
0.00783594
0.014008
0.00158816
0.0015177
0.00197846
0.00205459
0.00185362
0.00150928
0.00121923
0.0010024
0.000838687
0.000712656
0.000615967
0.000539239
0.000476986
0.000425695
0.000382903
0.000346746
0.000315783
0.000288937
0.000265483
0.000245023
0.000227456
0.000212991
0.000202199
0.00019609
0.000196195
0.000206793
0.00023313
0.000278326
0.000341708
0.000415018
0.000482287
0.000524424
0.000524601
0.000501922
0.000465177
0.000466037
0.000392464
)
;

boundaryField
{
    floor
    {
        Cmu             0.09;
        kappa           0.41;
        E               9.8;
        type            epsilonWallFunction;
        value           nonuniform List<scalar> 
29
(
6.29999e-05
2.2249e-05
3.10411e-05
3.14941e-05
1.68727e-05
7.27411e-06
3.56721e-06
2.73472e-06
2.95674e-06
3.48194e-06
3.48747e-06
2.91558e-06
2.32008e-06
2.27424e-06
5.39061e-06
8.05693e-06
1.66794e-05
2.42045e-05
2.25585e-05
1.60191e-05
1.60191e-05
3.834e-05
7.19412e-05
0.000309383
6.29999e-05
2.2249e-05
4.99889e-05
0.000165647
0.000274733
)
;
    }
    ceiling
    {
        Cmu             0.09;
        kappa           0.41;
        E               9.8;
        type            epsilonWallFunction;
        value           nonuniform List<scalar> 
43
(
0.00442141
0.00783594
0.014008
0.00158816
0.0015177
0.00197846
0.00205459
0.00185362
0.00150928
0.00121923
0.0010024
0.000838687
0.000712656
0.000615967
0.000539239
0.000476986
0.000425695
0.000382903
0.000346746
0.000315783
0.000288937
0.000265483
0.000245023
0.000227456
0.000212991
0.000202199
0.00019609
0.000196195
0.000206793
0.00023313
0.000278326
0.000341708
0.000415018
0.000482287
0.000524424
0.000524601
0.000501922
0.000465177
0.000466037
0.000392464
0.0386486
0.0615293
0.0401953
)
;
    }
    sWall
    {
        Cmu             0.09;
        kappa           0.41;
        E               9.8;
        type            epsilonWallFunction;
        value           uniform 0.00442141;
    }
    nWall
    {
        Cmu             0.09;
        kappa           0.41;
        E               9.8;
        type            epsilonWallFunction;
        value           nonuniform List<scalar> 6(0.000415664 0.000726189 0.000647692 0.00128504 0.000879252 0.000392464);
    }
    sideWalls
    {
        type            empty;
    }
    glass1
    {
        Cmu             0.09;
        kappa           0.41;
        E               9.8;
        type            epsilonWallFunction;
        value           nonuniform List<scalar> 9(0.000908005 0.00100654 0.00311531 0.0126708 0.0161689 0.019207 0.0227948 0.028148 0.0386486);
    }
    glass2
    {
        Cmu             0.09;
        kappa           0.41;
        E               9.8;
        type            epsilonWallFunction;
        value           nonuniform List<scalar> 2(0.000973081 0.00133594);
    }
    sun
    {
        Cmu             0.09;
        kappa           0.41;
        E               9.8;
        type            epsilonWallFunction;
        value           nonuniform List<scalar> 
14
(
0.000908005
0.00127254
0.0016825
0.00143596
0.000862389
0.000530904
0.000304611
0.000214988
0.00015776
0.00011974
9.76117e-05
8.42675e-05
7.51149e-05
6.83443e-05
)
;
    }
    heatsource1
    {
        Cmu             0.09;
        kappa           0.41;
        E               9.8;
        type            epsilonWallFunction;
        value           nonuniform List<scalar> 3(0.000760231 0.000541318 0.000415664);
    }
    heatsource2
    {
        Cmu             0.09;
        kappa           0.41;
        E               9.8;
        type            epsilonWallFunction;
        value           nonuniform List<scalar> 4(7.92023e-05 3.42862e-05 3.42862e-05 0.000107295);
    }
    Table_master
    {
        Cmu             0.09;
        kappa           0.41;
        E               9.8;
        type            epsilonWallFunction;
        value           nonuniform List<scalar> 9(2.57991e-05 1.34007e-05 8.84105e-06 6.44486e-06 4.8373e-06 3.62773e-06 6.92124e-06 3.07258e-05 6.67964e-05);
    }
    Table_slave
    {
        Cmu             0.09;
        kappa           0.41;
        E               9.8;
        type            epsilonWallFunction;
        value           nonuniform List<scalar> 9(0.000143751 0.000151966 0.000162433 0.000173682 0.0001855 0.000198163 0.000212738 0.000225425 0.000240524);
    }
    inlet
    {
        type            turbulentMixingLengthDissipationRateInlet;
        mixingLength    0.01;
        phi             phi;
        k               k;
        value           uniform 3.77336e-06;
    }
    outlet
    {
        type            zeroGradient;
    }
}


// ************************************************************************* //
