/*--------------------------------*- C++ -*----------------------------------*\
  =========                 |
  \\      /  F ield         | OpenFOAM: The Open Source CFD Toolbox
   \\    /   O peration     | Website:  https://openfoam.org
    \\  /    A nd           | Version:  6
     \\/     M anipulation  |
\*---------------------------------------------------------------------------*/
FoamFile
{
    version     2.0;
    format      ascii;
    class       volScalarField;
    location    "180";
    object      nut;
}
// * * * * * * * * * * * * * * * * * * * * * * * * * * * * * * * * * * * * * //

dimensions      [0 2 -1 0 0 0 0];

internalField   nonuniform List<scalar> 
459
(
0.00136903
0.00153206
0.00168154
0.001595
0.00134571
0.00114478
0.000951244
0.000846917
0.000763901
0.000696821
0.000650944
0.000619816
0.000596512
0.000578027
0.000562555
0.000397536
0.000444117
0.000446193
0.000362211
0.000273621
0.00021591
0.000197753
0.000202999
0.000214353
0.000214408
0.000201952
0.000187152
0.000185971
0.000247966
0.000283526
0.000361316
0.000409019
0.000399514
0.000356423
0.0014168
0.00268325
0.0039534
0.00544077
0.00577601
0.00532554
0.00436219
0.00317336
0.00265199
0.00271881
0.00277412
0.0025757
0.00228546
0.00191205
0.00137845
0.000607155
0.000459256
0.000520537
0.00105749
0.00120084
0.00119991
0.000887019
0.000623808
0.000495546
0.000494544
0.000564176
0.000535183
0.000408791
0.000276091
0.000229364
0.000348952
0.000571095
0.00112514
0.00124991
0.0013325
0.000476722
0.00206509
0.00265196
0.00296817
0.00340426
0.00417834
0.00482541
0.00510511
0.00494279
0.00380922
0.00329247
0.00353229
0.0033697
0.00293254
0.00240801
0.00180321
0.00120302
0.000671837
0.000776308
0.00210077
0.00191882
0.00168828
0.00138966
0.00102875
0.000417834
0.000335885
0.000292383
0.00026311
0.000239077
0.000217195
0.000269856
0.000442998
0.000573708
0.00130781
0.00128743
0.00104491
0.0005881
0.00329597
0.0037447
0.00366843
0.00356296
0.00373476
0.00422752
0.00480646
0.00520752
0.0048452
0.00402449
0.00422347
0.00428867
0.00384535
0.00322537
0.00248595
0.00173606
0.0011694
0.000919108
0.00217234
0.00229455
0.00211909
0.00181272
0.00147921
0.00108937
0.000740513
0.000754336
0.000771248
0.000788627
0.000806093
0.000824004
0.000843699
0.000860157
0.000879004
0.00181796
0.00242815
0.00267379
0.000956309
0.00357498
0.00449621
0.00422316
0.00386658
0.00378299
0.00409499
0.00468737
0.00529276
0.00531847
0.00481941
0.00499765
0.00542963
0.00536019
0.00513985
0.00486486
0.00453691
0.00420794
0.00396599
0.00392889
0.00382499
0.00372975
0.00363767
0.00354527
0.00347093
0.0034308
0.00346529
0.00350447
0.00354022
0.00357175
0.00360471
0.0036517
0.00371419
0.00380128
0.00392373
0.00394303
0.00377076
0.00315568
0.00129073
0.00115247
0.00105507
0.00378618
0.00495878
0.00447653
0.00389206
0.00374765
0.00402836
0.00465718
0.00537273
0.00554269
0.00518916
0.00549797
0.00613016
0.00628947
0.00629504
0.0062653
0.00617997
0.00602146
0.00580432
0.00555753
0.00529519
0.00506385
0.00488985
0.00476571
0.00467503
0.00460488
0.00455063
0.00450245
0.00445279
0.00439979
0.00435182
0.00432444
0.00432795
0.00436054
0.00440045
0.0044263
0.00438244
0.0040811
0.00363915
0.0023976
0.00127049
0.0040086
0.00486715
0.00382684
0.00371603
0.00371639
0.00404809
0.00470576
0.0054276
0.00560921
0.00533698
0.00566396
0.0063826
0.00666152
0.00677536
0.00684993
0.00686345
0.00678824
0.00662302
0.00639243
0.00613627
0.00589821
0.00570568
0.00555828
0.00544001
0.00533498
0.00523759
0.00514204
0.00503482
0.00490278
0.00474587
0.00457965
0.004426
0.0042992
0.00418631
0.00404705
0.00381967
0.00344902
0.00300283
0.00250053
0.00122293
0.00430062
0.00473858
0.00383827
0.00348213
0.00389287
0.0042662
0.00484185
0.00545707
0.0056136
0.00539369
0.00564484
0.0062745
0.00661219
0.00677758
0.0068989
0.00696425
0.0069499
0.00684794
0.00667451
0.00646531
0.00626383
0.00610401
0.00599723
0.00593397
0.00589433
0.00586211
0.0058267
0.00577267
0.00567721
0.00552228
0.00529537
0.00497509
0.00457393
0.00412771
0.00367663
0.00326202
0.00290019
0.0025607
0.00222331
0.00140088
0.00477999
0.00558139
0.00715329
0.0035696
0.00414256
0.00481523
0.00516433
0.00558876
0.0057
0.0054585
0.0054495
0.00580809
0.00613514
0.00631599
0.00643667
0.00651206
0.00653239
0.00648732
0.00638024
0.00623215
0.00607665
0.00594946
0.00587907
0.00588272
0.00596247
0.00609759
0.00625317
0.00640081
0.00651859
0.00657657
0.0065479
0.00645544
0.00632985
0.00620701
0.00606111
0.00568261
0.00489644
0.00419953
0.0040103
0.00155701
0.0116399
0.00596394
0.00382068
0.00552674
0.00572331
0.0059267
0.00589563
0.00549646
0.00526452
0.00527515
0.00536063
0.00541182
0.0054454
0.00546977
0.00548029
0.00546586
0.00541867
0.00534115
0.00524713
0.00515852
0.00510117
0.00510302
0.00519185
0.00538619
0.00567614
0.00601961
0.00634534
0.00658051
0.00671997
0.00677222
0.00675705
0.00670311
0.00662695
0.00650445
0.00617968
0.00538891
0.00494712
0.00153696
0.00484282
0.0032543
0.00518929
0.00567434
0.00576443
0.00578061
0.00542222
0.00491783
0.00454633
0.0043232
0.00416977
0.00403218
0.0039258
0.00385197
0.00380354
0.00376959
0.00373914
0.00370464
0.0036644
0.00362314
0.00359135
0.00358482
0.00362512
0.00373922
0.00395245
0.00427256
0.00465815
0.00505054
0.00538425
0.00562219
0.00575558
0.0057905
0.00573266
0.00556158
0.00508244
0.00432907
0.00399116
0.00135433
0.00232033
0.002808
0.00340799
0.00164944
0.00162468
0.00177482
0.00179731
0.00173671
0.00162173
0.00151037
0.00141493
0.00133328
0.00126283
0.00120292
0.00115073
0.00110461
0.0010635
0.00102658
0.000993184
0.000962682
0.000934578
0.000908565
0.000884591
0.000862921
0.000844226
0.000829724
0.000821291
0.00082145
0.000835992
0.00087009
0.000923047
0.000988391
0.00105454
0.00110868
0.00114004
0.00114014
0.00112344
0.00109531
0.00109599
0.00103499
)
;

boundaryField
{
    floor
    {
        type            nutkWallFunction;
        Cmu             0.09;
        kappa           0.41;
        E               9.8;
        value           nonuniform List<scalar> 
29
(
6.76514e-05
4.64528e-05
5.25457e-05
5.28221e-05
4.18103e-05
2.98046e-05
2.16945e-05
1.9075e-05
1.98275e-05
2.14555e-05
2.14696e-05
1.9688e-05
1.7546e-05
1.73675e-05
2.62032e-05
3.11303e-05
4.16461e-05
4.79492e-05
4.67035e-05
4.10003e-05
4.10002e-05
5.67391e-05
7.08536e-05
0.000115554
6.76514e-05
4.64527e-05
6.23615e-05
9.40409e-05
0.000111153
)
;
    }
    ceiling
    {
        type            nutkWallFunction;
        Cmu             0.09;
        kappa           0.41;
        E               9.8;
        value           nonuniform List<scalar> 
43
(
0.000268115
0.000319901
0.000382366
0.000194879
0.000192122
0.000208777
0.000211255
0.000204553
0.000191778
0.000179314
0.000168551
0.00015928
0.000151231
0.000144346
0.000138318
0.000132966
0.000128173
0.000123851
0.000119926
0.000116329
0.000113002
0.000109913
0.000107056
0.000104467
0.000102226
0.000100483
9.94678e-05
9.94859e-05
0.000101234
0.000105319
0.000111628
0.000119356
0.000127121
0.000133434
0.000137078
0.000137091
0.000135156
0.000131887
0.000131965
0.000124839
0.0005214
0.000600651
0.0005276
)
;
    }
    sWall
    {
        type            nutkWallFunction;
        Cmu             0.09;
        kappa           0.41;
        E               9.8;
        value           uniform 0.000268177;
    }
    nWall
    {
        type            nutkWallFunction;
        Cmu             0.09;
        kappa           0.41;
        E               9.8;
        value           nonuniform List<scalar> 6(0.000127187 0.000152128 0.000146672 0.000182303 0.000161685 0.000124846);
    }
    sideWalls
    {
        type            empty;
    }
    glass1
    {
        type            nutkWallFunction;
        Cmu             0.09;
        kappa           0.41;
        E               9.8;
        value           nonuniform List<scalar> 9(0.000163536 0.000168974 0.00024088 0.000371345 0.000400123 0.00042175 0.000444395 0.000473933 0.000521999);
    }
    glass2
    {
        type            nutkWallFunction;
        Cmu             0.09;
        kappa           0.41;
        E               9.8;
        value           nonuniform List<scalar> 2(0.000167027 0.00018462);
    }
    sun
    {
        type            nutkWallFunction;
        Cmu             0.09;
        kappa           0.41;
        E               9.8;
        value           nonuniform List<scalar> 
14
(
0.000163356
0.000181752
0.000198431
0.000188785
0.000160684
0.000137619
0.000114967
0.000102542
9.25255e-05
8.43378e-05
7.86843e-05
7.48213e-05
7.19138e-05
6.95974e-05
)
;
    }
    heatsource1
    {
        type            nutkWallFunction;
        Cmu             0.09;
        kappa           0.41;
        E               9.8;
        value           nonuniform List<scalar> 3(0.000154369 0.000138481 0.000127178);
    }
    heatsource2
    {
        type            nutkWallFunction;
        Cmu             0.09;
        kappa           0.41;
        E               9.8;
        value           nonuniform List<scalar> 4(7.32457e-05 5.44956e-05 5.44955e-05 8.12626e-05);
    }
    Table_master
    {
        type            nutkWallFunction;
        Cmu             0.09;
        kappa           0.41;
        E               9.8;
        value           nonuniform List<scalar> 9(4.91082e-05 3.82594e-05 3.23675e-05 2.83401e-05 2.49899e-05 2.18982e-05 2.92329e-05 5.23751e-05 6.90552e-05);
    }
    Table_slave
    {
        type            nutkWallFunction;
        Cmu             0.09;
        kappa           0.41;
        E               9.8;
        value           nonuniform List<scalar> 9(8.96881e-05 9.13725e-05 9.34281e-05 9.55354e-05 9.76477e-05 9.98084e-05 0.000102178 0.00010415 0.000106398);
    }
    inlet
    {
        type            calculated;
        value           uniform 3.3541e-05;
    }
    outlet
    {
        type            calculated;
        value           nonuniform List<scalar> 2(0.00232033 0.002808);
    }
}


// ************************************************************************* //
