/*--------------------------------*- C++ -*----------------------------------*\
  =========                 |
  \\      /  F ield         | OpenFOAM: The Open Source CFD Toolbox
   \\    /   O peration     | Website:  https://openfoam.org
    \\  /    A nd           | Version:  6
     \\/     M anipulation  |
\*---------------------------------------------------------------------------*/
FoamFile
{
    version     2.0;
    format      ascii;
    class       surfaceScalarField;
    location    "180";
    object      phi;
}
// * * * * * * * * * * * * * * * * * * * * * * * * * * * * * * * * * * * * * //

dimensions      [1 0 -1 0 0 0 0];

internalField   nonuniform List<scalar> 
852
(
-0.00367496
0.00372659
-0.00369835
2.34807e-05
-0.00292441
-0.000773833
-0.00261343
-0.000310898
-0.00294067
0.000327331
-0.00333152
0.000390944
-0.00334575
1.43295e-05
-0.0031044
-0.000241263
-0.0026422
-0.000462103
-0.00211804
-0.000524069
-0.00164077
-0.000477169
-0.00122536
-0.000415321
-0.00085072
-0.000374548
-0.000458674
-0.000391954
-0.000455182
-0.000631875
0.000636511
-0.00057404
-5.77857e-05
-0.000375384
-0.000198633
-0.000358897
-1.65632e-05
-0.000575334
0.000216224
-0.000793228
0.000217767
-0.000912894
0.000119659
-0.000911547
-1.31018e-06
-0.00083473
-7.67652e-05
-0.000717722
-0.000116951
-0.000555277
-0.00016238
-0.000315726
-0.000239477
4.3737e-05
-0.000359381
0.000335781
-0.000291948
0.00051569
-0.000179812
0.000705615
-0.000189833
0.00090029
-0.000194586
0.000848185
5.21888e-05
0.000853696
-0.000316611
0.00419047
0.0013157
-0.00160871
0.00224708
-0.00170513
0.00196814
-3.18772e-05
0.00100801
0.00128752
-0.000363603
0.00176264
-0.00169013
0.00134094
-0.00241999
0.000488695
-0.00232112
-0.000560879
-0.00204723
-0.000797867
-0.00175407
-0.000770228
-0.00144932
-0.000719973
-0.00110721
-0.000716567
-0.000733831
-0.000765239
-0.000372093
-0.000816828
0.000267935
-0.000639989
0.000267969
0.000817379
-0.000169433
0.000607232
0.000152411
0.000191385
0.000217264
4.168e-05
0.000133174
0.00015533
0.000102537
0.000155182
0.000217885
2.7595e-05
0.000247246
-8.30362e-05
0.000109322
-0.000161989
2.18972e-06
-0.000199327
-7.95732e-05
-0.000199413
-0.000162233
-0.000159712
-0.000279105
-9.53256e-05
-0.000423671
-9.72885e-05
-0.000289873
-0.000112952
-0.000164054
3.42415e-05
-0.000336951
0.000298369
-0.000458631
0.000349367
1.2638e-06
0.00121662
0.00603393
-0.00163776
0.0081256
-0.00370029
0.00806456
-0.001644
0.00703423
0.000998546
0.0055067
0.00281513
0.00370226
0.00356714
0.00167291
0.00337036
-0.00030698
0.00246866
-0.00153875
0.00067099
-0.00176062
-0.000575891
-0.00176951
-0.000761239
-0.00170674
-0.000782647
-0.00159208
-0.00083113
-0.00144332
-0.000913902
-0.00128393
-0.000976122
-0.0010007
-0.000923122
-0.000732645
-0.000589212
0.000433851
-0.000749538
0.000312773
-0.000706225
0.000173978
-0.000582341
9.31315e-06
-0.000330889
-0.000148875
0.000263099
-0.000376031
0.000510582
0.000620118
0.000622514
0.000543138
0.000381098
0.000102182
-0.00032122
-0.000610814
-0.000774628
-0.00090569
-0.000205796
-0.00143354
6.93334e-05
-0.00151434
8.21811e-05
-0.000278594
0.00765597
-0.00906507
0.00948681
-0.00553103
0.00896295
-0.00112005
0.00785522
0.00210637
0.00641673
0.0042537
0.00470103
0.00528293
0.00285666
0.00521479
0.00110415
0.00422125
-0.000522595
0.00229782
-0.00133683
0.00023845
-0.00169613
-0.000401833
-0.0018931
-0.000585571
-0.00203487
-0.000689265
-0.00217195
-0.000776717
-0.0023246
-0.000823372
-0.00247346
-0.000774174
-0.0027121
-0.00049393
-0.00243676
-0.000261212
-0.00203969
3.68337e-05
-0.00188531
0.000158446
-0.00178229
7.1024e-05
-0.00171005
-6.28594e-05
-0.00165413
-0.000204715
-0.00173941
-0.00029065
-0.00148521
-0.000254265
-0.00122568
-0.000259591
-0.000949352
-0.000276381
-0.000660485
-0.000288925
-0.000366282
-0.00029426
-7.62393e-05
-0.0002901
0.000190638
-0.000266932
0.000419099
-0.000228514
0.000598358
-0.000179313
0.000551027
-0.000158376
0.000648179
-2.77014e-05
0.000609441
0.000121065
0.000347989
0.00421289
-0.0129936
0.00529507
-0.00661311
0.00520867
-0.00103355
0.00484296
0.00247219
0.00418448
0.00491227
0.00322072
0.00624678
0.00207829
0.00635729
0.000922871
0.00537676
-0.00014122
0.00336201
-0.000989219
0.00108656
-0.00148377
9.28243e-05
-0.00177917
-0.000290061
-0.00199502
-0.000473314
-0.00218203
-0.000589604
-0.00235577
-0.000649532
-0.00250812
-0.00062172
-0.00253016
-0.000471796
-0.00250148
-0.000289805
-0.00233196
-0.000132596
-0.00211871
-5.47241e-05
-0.00195762
-8.99827e-05
-0.00184237
-0.000178025
-0.00176676
-0.000280226
-0.00170406
-0.000353253
-0.00156993
-0.000388291
-0.00140805
-0.000421367
-0.00123447
-0.000449854
-0.00105659
-0.000466695
-0.000883109
-0.000467631
-0.000721133
-0.000451962
-0.000567745
-0.0004202
-0.000410805
-0.000385328
-0.000219402
-0.000370579
2.70609e-05
-0.000404687
0.000466538
-0.000466994
0.00110119
-0.000513351
0.00200475
-0.000555279
0.00204661
-4.17495e-05
0.000337789
0.00170889
0.000384827
0.00124642
-0.0138987
0.00176249
-0.00712907
0.00224828
-0.00151923
0.00190051
0.00282008
0.00160371
0.00520916
0.00122739
0.00662319
0.000757132
0.00682764
0.000250482
0.0058835
-0.000237048
0.00384966
-0.000780618
0.00163025
-0.00118585
0.000498173
-0.00145464
-2.11697e-05
-0.00164506
-0.00028279
-0.00180356
-0.000430996
-0.00194461
-0.000508374
-0.00205583
-0.000510401
-0.00208981
-0.00043771
-0.00205327
-0.000326254
-0.00195549
-0.000230279
-0.00182812
-0.00018199
-0.00172138
-0.000196628
-0.00164737
-0.000251943
-0.00160421
-0.00032328
-0.00157072
-0.000386638
-0.0015243
-0.000434608
-0.00147108
-0.000474483
-0.00141919
-0.000501626
-0.00137575
-0.000510019
-0.00134676
-0.000496496
-0.001335
-0.000463596
-0.00133424
-0.000420822
-0.00133072
-0.000388701
-0.00130285
-0.000398283
-0.00122211
-0.00048524
-0.00101207
-0.000676828
-0.000518734
-0.00100645
0.000362791
-0.00143655
0.00165066
-0.00132931
0.00289236
0.000467501
0.00332698
-0.000511985
-0.0129896
-0.000152746
-0.00748819
-0.000104578
-0.00156728
-0.000846335
0.00356194
-0.000763378
0.00512631
-0.000536733
0.00639664
-0.000390722
0.00668172
-0.000334432
0.00582732
-0.000386452
0.00390181
-0.000604935
0.00184886
-0.000818916
0.000712268
-0.000991702
0.000151724
-0.00112443
-0.000149959
-0.00123411
-0.000321209
-0.00132973
-0.000412645
-0.00140254
-0.000437493
-0.00143351
-0.000406641
-0.00141537
-0.000344292
-0.00136237
-0.00028318
-0.00129649
-0.000247771
-0.00124484
-0.000248184
-0.00122014
-0.000276539
-0.00122404
-0.000319281
-0.00124837
-0.000362195
-0.00128577
-0.000397101
-0.00133971
-0.000420433
-0.00141694
-0.000424275
-0.00152517
-0.000401673
-0.00167148
-0.00035006
-0.00185978
-0.000275159
-0.0020863
-0.000194151
-0.00233885
-0.000135987
-0.00259995
-0.000137007
-0.00284602
-0.000238991
-0.00303962
-0.000483025
-0.00311951
-0.000926348
-0.00293749
-0.00161836
-0.00198886
-0.0022777
6.36789e-05
-0.00158475
0.00345074
-0.00287072
-0.00967013
-0.00416671
-0.00619208
-0.00370789
-0.00202598
-0.00346411
0.00331826
-0.00265153
0.00431383
-0.00180647
0.00555169
-0.00111988
0.00599524
-0.000620943
0.0053285
-0.000323347
0.00360436
-0.000262439
0.00178808
-0.000309616
0.000759561
-0.000376989
0.000219206
-0.000441566
-8.52754e-05
-0.000501108
-0.000261563
-0.000557933
-0.000355718
-0.000605177
-0.00039015
-0.000631662
-0.000380058
-0.000631797
-0.00034406
-0.000612292
-0.00030259
-0.000587741
-0.000272227
-0.000574907
-0.000260922
-0.000584531
-0.000266818
-0.000620655
-0.000283058
-0.000682125
-0.000300622
-0.000767894
-0.000311225
-0.000882221
-0.000305993
-0.00103309
-0.000273291
-0.00123073
-0.000203904
-0.00148652
-9.41498e-05
-0.00181311
5.15663e-05
-0.0022324
0.000225279
-0.00276902
0.000400779
-0.0034248
0.000518925
-0.00417019
0.000506563
-0.00494664
0.000293591
-0.00574831
-0.000124512
-0.0067449
-0.000621598
-0.00782313
-0.00119929
-0.00709552
-0.00231219
-0.00335678
-0.00918305
-0.0153774
-0.0100695
-0.00733374
-0.00598453
-0.000766598
-0.00392925
0.00225867
-0.0024909
0.00411344
-0.00135948
0.00486394
-0.000501694
0.00447085
0.00012447
0.00297833
0.000388362
0.00152433
0.000461793
0.000686251
0.000467876
0.000213235
0.000448136
-6.54271e-05
0.000415922
-0.000229245
0.000375127
-0.000314822
0.000332481
-0.000347407
0.000297151
-0.000344635
0.000274593
-0.00032141
0.000263142
-0.00029105
0.000254907
-0.000263904
0.000239694
-0.00024562
0.0002096
-0.000236636
0.000160581
-0.000233948
9.24448e-05
-0.000232392
7.14191e-06
-0.000225824
-9.15093e-05
-0.000207238
-0.000197536
-0.000167154
-0.000303869
-9.74549e-05
-0.00040397
6.07344e-06
-0.00050385
0.000151572
-0.000610496
0.000332056
-0.000722051
0.000512471
-0.000839989
0.000637004
-0.000980665
0.000647382
-0.0012018
0.000514861
-0.00158333
0.000257154
-0.00212827
-7.65227e-05
-0.00275252
-0.000574916
-0.00272432
-0.00234026
-0.00577184
-0.00819582
0.00125136
-0.00602534
-0.00293696
-0.00404428
0.000277724
-0.00243499
0.00250428
-0.00106508
0.00349415
0.000121691
0.00328422
0.000992798
0.00210737
0.00139438
0.00112288
0.00156088
0.000519881
0.00161178
0.000162453
0.00160234
-5.58795e-05
0.00155892
-0.000185714
0.00149685
-0.000252647
0.00142761
-0.000278077
0.00136057
-0.000277499
0.00130152
-0.000262274
0.00125145
-0.000240891
0.00120695
-0.000219327
0.00116232
-0.000200913
0.00111214
-0.000186373
0.00105282
-0.000174553
0.000983594
-0.000163083
0.000906742
-0.000148888
0.000827769
-0.000128175
0.000756378
-9.56676e-05
0.00070471
-4.56852e-05
0.000681737
2.91541e-05
0.000699108
0.000134313
0.000765895
0.000265387
0.000880309
0.00039818
0.00102646
0.000490986
0.00117614
0.000497832
0.00130477
0.000386357
0.00142147
0.000140586
0.00158113
-0.000236064
0.00182964
-0.000823294
0.00158387
-0.00209435
-0.00411885
-0.00176901
0.00301775
-0.00318465
-0.00152119
-0.00294656
3.97488e-05
-0.0017986
0.00135646
-0.000288335
0.00198401
0.00120809
0.00178794
0.00220152
0.00111408
0.00272174
0.000602799
0.00295682
0.000284924
0.0030295
8.98985e-05
0.00300544
-3.16975e-05
0.00292278
-0.000102944
0.00281167
-0.000141431
0.00269078
-0.000157091
0.0025721
-0.000158721
0.00246236
-0.000152449
0.00236387
-0.000142314
0.00227553
-0.000130915
0.00219434
-0.000119649
0.0021169
-0.000108865
0.00204058
-9.816e-05
0.00196427
-8.67092e-05
0.00188901
-7.356e-05
0.00181868
-5.7778e-05
0.00176126
-3.81653e-05
0.00172868
-1.3024e-05
0.00173562
2.22969e-05
0.00179858
7.14469e-05
0.00193043
0.000133629
0.00212949
0.000199224
0.00237332
0.000247267
0.00261997
0.000251293
0.00281709
0.000189352
0.00291237
4.54292e-05
0.00286858
-0.000192155
0.00258181
-0.000536394
0.0016094
-0.00112181
-0.00242534
-0.00280568
-0.00406907
-0.00105508
-0.00258549
-0.00255539
-0.00120793
0.00076787
0.00254929
0.00365778
0.00425551
0.00453566
0.00462098
0.00458485
0.00447764
0.00433212
0.00417115
0.00400876
0.00385287
0.00370736
0.0035735
0.00345116
0.00333988
0.00323959
0.00315106
0.003076
0.0030171
0.00297824
0.002965
0.00298767
0.00306016
0.00319553
0.00339716
0.00364741
0.00390215
0.00409533
0.00414491
0.00395721
0.00342561
0.00230883
)
;

boundaryField
{
    floor
    {
        type            calculated;
        value           nonuniform List<scalar> 
29
(
0
0
0
0
0
0
0
0
0
0
0
0
0
0
0
0
0
0
0
0
-5.42994e-06
-1.34782e-05
-1.90187e-05
-1.69823e-05
-3.40339e-06
-4.5763e-06
-1.1393e-05
-1.40209e-05
-1.405e-05
)
;
    }
    ceiling
    {
        type            calculated;
        value           nonuniform List<scalar> 
43
(
6.20438e-06
4.64572e-06
3.89224e-06
9.34109e-06
9.77215e-06
9.12313e-06
8.33659e-06
6.65256e-06
5.71825e-06
5.19824e-06
4.89135e-06
4.70139e-06
4.55367e-06
4.38236e-06
4.19242e-06
3.98578e-06
3.76376e-06
3.52781e-06
3.27974e-06
3.02135e-06
2.75375e-06
2.47654e-06
2.18705e-06
1.87982e-06
1.54611e-06
1.17381e-06
7.4916e-07
2.60924e-07
-3.16083e-07
-9.80365e-07
-1.67808e-06
-2.33837e-06
-2.90659e-06
-3.36635e-06
-3.73572e-06
-4.05078e-06
-4.35639e-06
-4.67832e-06
-4.90648e-06
-4.62763e-06
3.92031e-06
2.36981e-06
2.74844e-06
)
;
    }
    sWall
    {
        type            calculated;
        value           uniform -0.000162572;
    }
    nWall
    {
        type            calculated;
        value           nonuniform List<scalar> 6(-4.71093e-05 -4.95464e-05 -5.98558e-05 -6.89773e-05 -8.39733e-05 -0.000111755);
    }
    sideWalls
    {
        type            empty;
        value           nonuniform 0();
    }
    glass1
    {
        type            calculated;
        value           nonuniform List<scalar> 9(-5.15635e-05 -0.000147211 -0.000205614 -0.000228564 -0.000284262 -0.000341206 -0.000397043 -0.000448603 -0.000490884);
    }
    glass2
    {
        type            calculated;
        value           nonuniform List<scalar> 2(-0.000287817 -0.00030912);
    }
    sun
    {
        type            calculated;
        value           uniform 0;
    }
    heatsource1
    {
        type            calculated;
        value           nonuniform List<scalar> 3(2.04589e-07 2.04719e-07 2.05457e-07);
    }
    heatsource2
    {
        type            calculated;
        value           nonuniform List<scalar> 4(5.13918e-08 5.14703e-08 0 0);
    }
    Table_master
    {
        type            calculated;
        value           nonuniform List<scalar> 9(-1.5452e-07 -1.54572e-07 -1.54611e-07 -1.54645e-07 -1.54705e-07 -1.54793e-07 -1.54786e-07 -1.54611e-07 -1.54456e-07);
    }
    Table_slave
    {
        type            calculated;
        value           nonuniform List<scalar> 9(1.53626e-07 1.53712e-07 1.53792e-07 1.53878e-07 1.53969e-07 1.54061e-07 1.54092e-07 1.54042e-07 1.53975e-07);
    }
    inlet
    {
        type            calculated;
        value           uniform -0.000389137;
    }
    outlet
    {
        type            calculated;
        value           nonuniform List<scalar> 2(0.00296217 0.00125886);
    }
}


// ************************************************************************* //
