/*--------------------------------*- C++ -*----------------------------------*\
  =========                 |
  \\      /  F ield         | OpenFOAM: The Open Source CFD Toolbox
   \\    /   O peration     | Website:  https://openfoam.org
    \\  /    A nd           | Version:  6
     \\/     M anipulation  |
\*---------------------------------------------------------------------------*/
FoamFile
{
    version     2.0;
    format      ascii;
    class       volScalarField;
    location    "180";
    object      T;
}
// * * * * * * * * * * * * * * * * * * * * * * * * * * * * * * * * * * * * * //

dimensions      [0 0 0 1 0 0 0];

internalField   nonuniform List<scalar> 
459
(
303.788
303.585
303.523
303.187
302.881
302.721
302.629
302.592
302.565
302.543
302.529
302.52
302.515
302.512
302.516
302.327
302.316
302.313
302.282
302.18
302.038
301.963
301.941
301.936
301.932
301.93
301.931
301.938
301.969
301.985
302.016
302.024
302.014
302.017
304.202
304.502
304.484
304.305
303.988
303.551
303.058
302.799
302.675
302.605
302.574
302.559
302.548
302.538
302.523
302.498
302.434
302.357
302.349
302.34
302.328
302.283
302.199
302.105
302.043
302
301.976
301.967
301.964
301.971
302.026
302.078
302.133
302.094
302.05
302.029
304.675
304.689
304.678
304.647
304.502
304.221
303.852
303.448
302.879
302.685
302.624
302.604
302.592
302.578
302.559
302.534
302.504
302.427
302.413
302.413
302.419
302.423
302.405
302.223
302.155
302.12
302.09
302.062
302.032
302.02
302.113
302.181
302.223
302.145
302.119
302.106
304.937
304.732
304.689
304.672
304.612
304.451
304.171
303.79
303.263
302.794
302.679
302.654
302.644
302.632
302.612
302.587
302.559
302.539
302.518
302.53
302.553
302.578
302.594
302.606
302.617
302.619
302.622
302.624
302.627
302.629
302.628
302.624
302.612
302.55
302.466
302.413
302.405
304.793
304.466
304.438
304.502
304.544
304.478
304.267
303.913
303.396
302.882
302.736
302.709
302.706
302.702
302.692
302.677
302.66
302.645
302.635
302.637
302.648
302.658
302.663
302.667
302.668
302.669
302.671
302.674
302.677
302.681
302.684
302.686
302.684
302.674
302.656
302.635
302.621
302.606
302.579
302.633
304.667
304.238
304.258
304.385
304.487
304.462
304.275
303.923
303.396
302.93
302.791
302.766
302.769
302.773
302.771
302.762
302.749
302.737
302.728
302.724
302.723
302.723
302.722
302.72
302.716
302.714
302.714
302.717
302.723
302.731
302.741
302.751
302.762
302.775
302.79
302.806
302.822
302.807
302.684
302.672
304.537
304.126
304.219
304.382
304.462
304.425
304.228
303.867
303.365
302.968
302.843
302.826
302.835
302.846
302.852
302.849
302.841
302.83
302.819
302.811
302.804
302.798
302.791
302.782
302.773
302.764
302.759
302.759
302.766
302.779
302.797
302.817
302.839
302.862
302.884
302.903
302.915
302.912
302.87
302.697
304.396
304.086
304.205
304.376
304.409
304.347
304.147
303.798
303.349
303.017
302.905
302.891
302.905
302.924
302.936
302.94
302.936
302.928
302.918
302.907
302.897
302.886
302.874
302.86
302.844
302.826
302.811
302.802
302.803
302.815
302.836
302.861
302.888
302.914
302.937
302.957
302.974
302.99
303.004
303.015
304.251
303.982
303.969
304.285
304.315
304.241
304.055
303.746
303.363
303.097
303.005
302.986
302.995
303.012
303.026
303.033
303.034
303.029
303.021
303.011
303
302.987
302.973
302.956
302.936
302.911
302.887
302.864
302.847
302.841
302.843
302.853
302.867
302.883
302.899
302.917
302.941
302.97
303.006
303.104
303.553
304.064
304.173
304.126
303.978
303.726
303.409
303.236
303.161
303.133
303.127
303.13
303.135
303.139
303.138
303.135
303.128
303.118
303.107
303.095
303.08
303.063
303.042
303.018
302.99
302.961
302.932
302.907
302.888
302.878
302.875
302.877
302.881
302.886
302.893
302.903
302.92
302.965
303.764
303.984
304.034
304.029
303.932
303.721
303.523
303.412
303.353
303.321
303.302
303.289
303.28
303.272
303.264
303.255
303.245
303.234
303.222
303.208
303.194
303.178
303.159
303.137
303.112
303.082
303.05
303.016
302.983
302.955
302.935
302.921
302.912
302.908
302.909
302.915
302.926
302.973
303.86
303.797
303.801
303.933
303.955
303.96
303.904
303.756
303.66
303.599
303.559
303.531
303.509
303.487
303.467
303.448
303.429
303.411
303.393
303.376
303.36
303.344
303.327
303.311
303.295
303.277
303.259
303.237
303.213
303.183
303.149
303.114
303.08
303.05
303.027
303.009
302.994
302.981
302.969
302.994
)
;

boundaryField
{
    floor
    {
        type            wallHeatTransfer;
        Tinf            uniform 305.2;
        alphaWall       uniform 0.24;
        value           nonuniform List<scalar> 
29
(
302.969
302.936
302.885
302.881
302.937
302.981
302.994
302.988
302.959
302.927
302.924
302.954
302.996
303.004
302.875
302.821
302.732
302.685
302.687
302.739
302.739
302.626
302.612
302.728
302.969
302.936
302.862
302.8
302.855
)
;
    }
    ceiling
    {
        type            wallHeatTransfer;
        Tinf            uniform 303.2;
        alphaWall       uniform 0.24;
        value           nonuniform List<scalar> 
43
(
303.822
303.767
303.775
303.877
303.897
303.905
303.854
303.716
303.624
303.567
303.528
303.501
303.48
303.459
303.44
303.422
303.405
303.388
303.372
303.356
303.341
303.326
303.312
303.297
303.283
303.267
303.251
303.233
303.211
303.185
303.155
303.124
303.093
303.066
303.044
303.028
303.015
303.004
302.993
303.016
304.218
303.96
303.746
)
;
    }
    sWall
    {
        type            wallHeatTransfer;
        Tinf            uniform 315.2;
        alphaWall       uniform 0.36;
        value           uniform 304.818;
    }
    nWall
    {
        type            wallHeatTransfer;
        Tinf            uniform 307.2;
        alphaWall       uniform 0.36;
        value           nonuniform List<scalar> 6(303.332 303.276 303.315 303.456 303.512 303.646);
    }
    sideWalls
    {
        type            empty;
    }
    glass1
    {
        type            wallHeatTransfer;
        Tinf            uniform 315.2;
        alphaWall       uniform 4.3;
        value           nonuniform List<scalar> 9(311.074 311.149 310.499 309.569 309.306 309.103 308.897 308.651 308.32);
    }
    glass2
    {
        type            wallHeatTransfer;
        Tinf            uniform 307.2;
        alphaWall       uniform 4.3;
        value           nonuniform List<scalar> 2(305.653 305.599);
    }
    sun
    {
        type            wallHeatTransfer;
        Tinf            uniform 305.2;
        alphaWall       uniform 0.24;
        value           nonuniform List<scalar> 
14
(
303.912
303.716
303.649
303.344
303.088
302.971
302.927
302.921
302.923
302.929
302.936
302.943
302.95
302.957
)
;
    }
    heatsource1
    {
        type            fixedGradient;
        gradient        uniform 0;
    }
    heatsource2
    {
        type            fixedGradient;
        gradient        uniform 0;
    }
    Table_master
    {
        type            zeroGradient;
    }
    Table_slave
    {
        type            zeroGradient;
    }
    inlet
    {
        type            fixedValue;
        value           uniform 290.15;
    }
    outlet
    {
        type            zeroGradient;
    }
}


// ************************************************************************* //
