/*--------------------------------*- C++ -*----------------------------------*\
  =========                 |
  \\      /  F ield         | OpenFOAM: The Open Source CFD Toolbox
   \\    /   O peration     | Website:  https://openfoam.org
    \\  /    A nd           | Version:  6
     \\/     M anipulation  |
\*---------------------------------------------------------------------------*/
FoamFile
{
    version     2.0;
    format      ascii;
    class       volVectorField;
    location    "180";
    object      U;
}
// * * * * * * * * * * * * * * * * * * * * * * * * * * * * * * * * * * * * * //

dimensions      [0 1 -1 0 0 0 0];

internalField   nonuniform List<vector> 
459
(
(-0.0428354 0.0734054 0)
(-0.171097 -0.0096188 0)
(-0.125141 -0.0209871 0)
(-0.117369 0.00301781 0)
(-0.122741 0.00941795 0)
(-0.138477 0.000630031 0)
(-0.147215 -0.00869044 0)
(-0.139515 -0.0141808 0)
(-0.123469 -0.018492 0)
(-0.102237 -0.0186366 0)
(-0.0808852 -0.0164001 0)
(-0.0609982 -0.0140951 0)
(-0.0419223 -0.013019 0)
(-0.0292116 -0.0143947 0)
(-0.0541695 -0.017082 0)
(0.0271119 0.0122329 0)
(-0.0316138 -0.00726364 0)
(-0.0206697 -0.00776872 0)
(-0.0162365 -0.00112637 0)
(-0.0180298 0.00628332 0)
(-0.0307143 0.00432868 0)
(-0.0385713 -0.00230546 0)
(-0.040328 -0.00565758 0)
(-0.0375758 -0.00674289 0)
(-0.0335181 -0.00784609 0)
(-0.0275389 -0.00972879 0)
(-0.018117 -0.0126836 0)
(-0.00456561 -0.016604 0)
(0.0071963 -0.0156486 0)
(0.0179857 -0.0113082 0)
(0.0265903 -0.0105124 0)
(0.0329087 -0.0118483 0)
(0.0444981 -0.00475937 0)
(-0.0126579 0.0185008 0)
(0.230497 0.205084 0)
(0.0249004 -0.0607268 0)
(0.0942996 -0.062166 0)
(0.0843303 -0.00748191 0)
(0.06765 0.0374091 0)
(0.0195265 0.0469958 0)
(-0.0523963 0.015668 0)
(-0.0966326 -0.0137796 0)
(-0.103975 -0.0287183 0)
(-0.0945053 -0.032381 0)
(-0.0820907 -0.0296798 0)
(-0.0690645 -0.0267696 0)
(-0.0547546 -0.0258003 0)
(-0.0396238 -0.0276099 0)
(-0.0265531 -0.0316659 0)
(-0.0097649 -0.0332297 0)
(0.0189925 0.000792892 0)
(0.111969 0.012157 0)
(0.0369046 0.00657647 0)
(0.00794266 0.00291718 0)
(0.000233516 0.00420615 0)
(0.00412388 0.00852511 0)
(0.00522284 0.0124309 0)
(0.00380996 0.0111067 0)
(7.32208e-05 0.0039541 0)
(-0.00528171 -0.00183344 0)
(-0.0081784 -0.00510274 0)
(-0.00872624 -0.00804793 0)
(-0.00618522 -0.0121886 0)
(-0.0016218 -0.0175077 0)
(-0.00904869 -0.0133792 0)
(-0.00377944 -0.00861294 0)
(0.00151748 -0.0150219 0)
(0.00179883 -0.0205011 0)
(0.0297158 -0.00654416 0)
(-0.0806243 0.0437553 0)
(0.514448 0.182983 0)
(0.325333 -0.0194177 0)
(0.327621 -0.019427 0)
(0.333848 0.0476457 0)
(0.280405 0.100891 0)
(0.201506 0.121935 0)
(0.116091 0.109991 0)
(0.0305903 0.0695522 0)
(-0.057241 -0.00998335 0)
(-0.074583 -0.0338205 0)
(-0.0768289 -0.0355338 0)
(-0.0751563 -0.0346681 0)
(-0.0709868 -0.0358134 0)
(-0.0650604 -0.0390719 0)
(-0.0585333 -0.0420662 0)
(-0.0526441 -0.0401921 0)
(-0.0503894 -0.031583 0)
(0.0653139 0.00621688 0)
(-0.0378238 0.0114459 0)
(-0.0332774 0.0110672 0)
(-0.0277214 0.0055601 0)
(-0.0195135 -0.000225152 0)
(-0.0124144 -0.00595238 0)
(0.0231199 0.00832738 0)
(0.027221 0.00701533 0)
(0.0277759 0.00425816 0)
(0.0256707 0.000845223 0)
(0.0208307 -0.00282727 0)
(0.0138544 -0.00757497 0)
(-0.00251926 -0.014061 0)
(-0.0273737 -0.0105658 0)
(-0.0312544 -0.00679333 0)
(-0.0261401 -0.00691297 0)
(-0.0431404 0.00105053 0)
(-0.073491 0.0154345 0)
(-0.151241 0.0307686 0)
(0.691925 -0.335974 0)
(0.330477 -0.259342 0)
(0.363718 -0.121534 0)
(0.377205 0.0207609 0)
(0.323389 0.129643 0)
(0.244678 0.183221 0)
(0.162682 0.185522 0)
(0.0827665 0.148436 0)
(0.00497838 0.0719921 0)
(-0.0496579 -0.00947396 0)
(-0.0675911 -0.0268034 0)
(-0.0777268 -0.0307109 0)
(-0.0844074 -0.0336436 0)
(-0.0899769 -0.036538 0)
(-0.0962939 -0.0368105 0)
(-0.105125 -0.0293667 0)
(-0.115527 -0.00681721 0)
(-0.112617 0.0366485 0)
(-0.0867363 0.0126211 0)
(-0.0876276 0.0109904 0)
(-0.0786242 0.00464922 0)
(-0.0750732 -0.00278053 0)
(-0.0729092 -0.00973443 0)
(-0.0736086 -0.0147609 0)
(-0.0700127 -0.0112629 0)
(-0.0584172 -0.0111898 0)
(-0.0467153 -0.0120576 0)
(-0.0345165 -0.0129073 0)
(-0.022206 -0.0136168 0)
(-0.0105166 -0.0140291 0)
(0.00295698 -0.0133905 0)
(0.0131018 -0.0117702 0)
(0.023475 -0.0094099 0)
(0.025068 -0.00730978 0)
(0.0283653 0.000571192 0)
(0.0358415 0.00258212 0)
(-0.0752969 -0.00135951 0)
(0.669352 -0.517823 0)
(0.0811297 -0.283018 0)
(0.186661 -0.0494873 0)
(0.236674 0.107167 0)
(0.213323 0.203524 0)
(0.166299 0.251967 0)
(0.115142 0.252485 0)
(0.0627089 0.210458 0)
(0.00986333 0.127027 0)
(-0.0318163 0.0309144 0)
(-0.0557338 -0.00702946 0)
(-0.0710797 -0.0191937 0)
(-0.0813948 -0.0253581 0)
(-0.0899411 -0.0299939 0)
(-0.097981 -0.0331038 0)
(-0.105233 -0.033268 0)
(-0.109306 -0.0279103 0)
(-0.109198 -0.014715 0)
(-0.103723 -0.00309491 0)
(-0.0955994 0.00192831 0)
(-0.0872179 -0.000565032 0)
(-0.0814232 -0.00521426 0)
(-0.0776382 -0.0102629 0)
(-0.07488 -0.0138405 0)
(-0.0705856 -0.0142633 0)
(-0.0640812 -0.0154798 0)
(-0.0567829 -0.0166644 0)
(-0.0491741 -0.0175274 0)
(-0.0416343 -0.0178651 0)
(-0.0345109 -0.0175626 0)
(-0.0276861 -0.0163408 0)
(-0.0211271 -0.0145139 0)
(-0.0138139 -0.0127739 0)
(-0.0049351 -0.0122843 0)
(0.0109577 -0.0100544 0)
(0.0384643 -0.00522016 0)
(0.052303 0.0010139 0)
(0.0891812 0.0102831 0)
(0.17799 0.0560024 0)
(-0.380661 -0.000175393 0)
(0.624571 -0.606996 0)
(-0.133975 -0.306356 0)
(0.0798211 -0.0398719 0)
(0.111477 0.121151 0)
(0.0887566 0.227081 0)
(0.0662473 0.285118 0)
(0.0445203 0.290334 0)
(0.0207748 0.247375 0)
(-0.00535418 0.157565 0)
(-0.0265305 0.0597464 0)
(-0.0436568 0.0138021 0)
(-0.0577746 -0.00629577 0)
(-0.0669586 -0.0158101 0)
(-0.0743256 -0.0213402 0)
(-0.0809162 -0.0241097 0)
(-0.0865334 -0.023638 0)
(-0.0897314 -0.019731 0)
(-0.0896349 -0.0140868 0)
(-0.0864715 -0.00868855 0)
(-0.081324 -0.00592668 0)
(-0.0760469 -0.00680615 0)
(-0.072145 -0.00979018 0)
(-0.0697538 -0.0135321 0)
(-0.0682426 -0.0166693 0)
(-0.0665347 -0.0186025 0)
(-0.064308 -0.0203338 0)
(-0.061974 -0.0216917 0)
(-0.05988 -0.0223914 0)
(-0.0583345 -0.0222636 0)
(-0.057533 -0.0213309 0)
(-0.0573658 -0.019838 0)
(-0.0574304 -0.0184498 0)
(-0.0569641 -0.0182141 0)
(-0.054621 -0.0203423 0)
(-0.047354 -0.0252698 0)
(-0.0324341 -0.0342363 0)
(-0.0123499 -0.0493375 0)
(0.0240324 -0.0450999 0)
(0.13982 0.0471987 0)
(-0.0182142 0.090743 0)
(0.517356 -0.588129 0)
(-0.216451 -0.324902 0)
(0.0268007 -0.0756252 0)
(-0.00127583 0.151131 0)
(-0.0302423 0.232964 0)
(-0.0240052 0.290264 0)
(-0.0179965 0.298808 0)
(-0.0159703 0.257222 0)
(-0.0188863 0.169224 0)
(-0.0232854 0.0763886 0)
(-0.0311167 0.0269668 0)
(-0.0392229 0.00352832 0)
(-0.0458119 -0.00886093 0)
(-0.0507858 -0.0158319 0)
(-0.0552699 -0.0195351 0)
(-0.0590488 -0.0202218 0)
(-0.0613688 -0.0181744 0)
(-0.0616182 -0.0147785 0)
(-0.0599401 -0.0115078 0)
(-0.0571596 -0.00971299 0)
(-0.0544432 -0.00998345 0)
(-0.0527322 -0.0117542 0)
(-0.0523089 -0.0142461 0)
(-0.052959 -0.0166523 0)
(-0.0542659 -0.0185798 0)
(-0.0561456 -0.0200746 0)
(-0.0588634 -0.0208878 0)
(-0.0627676 -0.0207733 0)
(-0.0682233 -0.0196736 0)
(-0.0754656 -0.0178654 0)
(-0.0844896 -0.0159312 0)
(-0.0949815 -0.0146912 0)
(-0.10616 -0.0153215 0)
(-0.117065 -0.0195882 0)
(-0.126512 -0.0297946 0)
(-0.132871 -0.0482685 0)
(-0.132407 -0.0729489 0)
(-0.114575 -0.0855326 0)
(-0.0503679 -0.0383588 0)
(-0.118377 0.200902 0)
(0.321866 -0.468642 0)
(-0.283964 -0.27036 0)
(-0.187518 -0.0843081 0)
(-0.105428 0.164218 0)
(-0.133823 0.213429 0)
(-0.0935889 0.266081 0)
(-0.0612859 0.280148 0)
(-0.0373409 0.245242 0)
(-0.0218539 0.16506 0)
(-0.0125056 0.0805606 0)
(-0.0116246 0.0324328 0)
(-0.0144104 0.00829076 0)
(-0.017639 -0.00485349 0)
(-0.0201239 -0.012379 0)
(-0.0227114 -0.0164459 0)
(-0.0250985 -0.0178354 0)
(-0.026799 -0.0170649 0)
(-0.0273928 -0.0150608 0)
(-0.0268982 -0.0129046 0)
(-0.0258052 -0.0114591 0)
(-0.0248556 -0.0111514 0)
(-0.0247006 -0.0118226 0)
(-0.025658 -0.0130606 0)
(-0.0277482 -0.0143563 0)
(-0.0308645 -0.0153136 0)
(-0.0350749 -0.0156139 0)
(-0.0406307 -0.0148114 0)
(-0.0479747 -0.012551 0)
(-0.057661 -0.00871668 0)
(-0.0700067 -0.00354107 0)
(-0.0855672 0.00223802 0)
(-0.106004 0.00675361 0)
(-0.13186 0.00734109 0)
(-0.162808 0.00145609 0)
(-0.197621 -0.0120018 0)
(-0.232871 -0.0313723 0)
(-0.262595 -0.0517874 0)
(-0.288816 -0.0642509 0)
(-0.353536 -0.0535983 0)
(-0.589003 0.00313763 0)
(0.037128 -0.315041 0)
(-0.588921 -0.231973 0)
(-0.744137 -0.175403 0)
(-0.184003 0.0810571 0)
(-0.217745 0.156494 0)
(-0.136115 0.216348 0)
(-0.0813229 0.24015 0)
(-0.0397998 0.215848 0)
(-0.00849431 0.146398 0)
(0.013086 0.0729485 0)
(0.0202348 0.0321537 0)
(0.0210827 0.00995309 0)
(0.0201389 -0.00279775 0)
(0.0189672 -0.0102104 0)
(0.017254 -0.0141391 0)
(0.015292 -0.0156693 0)
(0.0134766 -0.0154963 0)
(0.012166 -0.0142987 0)
(0.011456 -0.0127825 0)
(0.0111182 -0.0115159 0)
(0.0107177 -0.0108055 0)
(0.00982161 -0.0106503 0)
(0.00815801 -0.0108643 0)
(0.00564641 -0.0111539 0)
(0.00236501 -0.0111989 0)
(-0.00164708 -0.0106123 0)
(-0.00605538 -0.00888648 0)
(-0.0106958 -0.00559838 0)
(-0.0152062 -0.000535332 0)
(-0.0188694 0.0063594 0)
(-0.0233971 0.0146987 0)
(-0.0282783 0.0234165 0)
(-0.0337519 0.0301896 0)
(-0.0400017 0.0321174 0)
(-0.0477247 0.026141 0)
(-0.0612821 0.00944499 0)
(-0.0783789 -0.0198389 0)
(-0.0722585 -0.0678676 0)
(-0.0988719 -0.153685 0)
(-0.524051 -0.254389 0)
(-1.68722 -0.210223 0)
(-0.0701726 -0.10611 0)
(-0.222445 0.0565166 0)
(-0.13737 0.14666 0)
(-0.0748759 0.183676 0)
(-0.0209828 0.171547 0)
(0.0262437 0.11124 0)
(0.0541585 0.0592648 0)
(0.0663874 0.0280753 0)
(0.0700602 0.00998564 0)
(0.0701493 -0.000989586 0)
(0.0685846 -0.00775397 0)
(0.0660693 -0.0114209 0)
(0.0630639 -0.0129418 0)
(0.0599926 -0.013061 0)
(0.0571978 -0.0123601 0)
(0.0548353 -0.0113088 0)
(0.0528405 -0.010258 0)
(0.0509889 -0.00941132 0)
(0.049011 -0.0088163 0)
(0.0466946 -0.00840591 0)
(0.0439367 -0.00803465 0)
(0.0407686 -0.00751262 0)
(0.0373446 -0.00662248 0)
(0.0340052 -0.00505412 0)
(0.0312116 -0.00249802 0)
(0.0297678 0.0013177 0)
(0.0296158 0.00674317 0)
(0.0313374 0.0136744 0)
(0.0351205 0.0208503 0)
(0.0405322 0.0261566 0)
(0.0467235 0.0273117 0)
(0.0526453 0.0230619 0)
(0.0572425 0.014212 0)
(0.0641255 0.00373474 0)
(0.0751081 -0.011568 0)
(0.132933 -0.0751071 0)
(-0.15812 -0.203933 0)
(-0.483171 0.0534708 0)
(0.0462826 -0.121962 0)
(-0.145897 -0.0202315 0)
(-0.108029 0.0738786 0)
(-0.0487724 0.117877 0)
(0.0215967 0.111105 0)
(0.0755626 0.0678268 0)
(0.109082 0.0330009 0)
(0.125586 0.0105145 0)
(0.131356 -0.0035506 0)
(0.131468 -0.0122057 0)
(0.128431 -0.0168566 0)
(0.123875 -0.0189494 0)
(0.118647 -0.0194292 0)
(0.113327 -0.0189598 0)
(0.108307 -0.0179884 0)
(0.103782 -0.0168079 0)
(0.0997662 -0.0156005 0)
(0.0961507 -0.014456 0)
(0.0927766 -0.0133852 0)
(0.0894989 -0.0123426 0)
(0.0862271 -0.011245 0)
(0.0829513 -0.00998676 0)
(0.0797637 -0.00844478 0)
(0.0769107 -0.00646212 0)
(0.0748516 -0.00387332 0)
(0.0742918 -0.000401486 0)
(0.0756246 0.00414699 0)
(0.0796797 0.00957309 0)
(0.086742 0.0150428 0)
(0.0963039 0.0191156 0)
(0.107006 0.0201937 0)
(0.116846 0.0171415 0)
(0.123625 0.00924607 0)
(0.125207 -0.00426102 0)
(0.118905 -0.0252206 0)
(0.150471 -0.0684134 0)
(-0.192254 -0.142761 0)
(0.244603 -0.126918 0)
(-0.183111 -0.0522528 0)
(-0.2083 0.133025 0)
(-0.00210866 -0.00386118 0)
(-0.11982 0.0460949 0)
(-0.0848535 0.074535 0)
(-0.0152379 0.098009 0)
(0.075042 0.0881929 0)
(0.134284 0.067272 0)
(0.173109 0.05177 0)
(0.193113 0.0421348 0)
(0.200354 0.0364731 0)
(0.200344 0.032915 0)
(0.196261 0.0300923 0)
(0.190292 0.0278443 0)
(0.183428 0.0260531 0)
(0.176288 0.0245839 0)
(0.169309 0.023315 0)
(0.162744 0.02215 0)
(0.156696 0.0210153 0)
(0.151172 0.0198542 0)
(0.146145 0.0186206 0)
(0.141591 0.0172692 0)
(0.13752 0.0157444 0)
(0.133982 0.0139692 0)
(0.131071 0.0118438 0)
(0.128925 0.009274 0)
(0.127807 0.00622481 0)
(0.127939 0.00276147 0)
(0.129793 -0.00072122 0)
(0.134074 -0.0036628 0)
(0.141205 -0.00577579 0)
(0.150944 -0.00738107 0)
(0.162014 -0.00937012 0)
(0.172072 -0.0128061 0)
(0.178394 -0.0187103 0)
(0.17647 -0.0270236 0)
(0.162293 -0.0383256 0)
(0.175538 -0.05752 0)
(-0.211781 -0.0980569 0)
)
;

boundaryField
{
    floor
    {
        type            noSlip;
    }
    ceiling
    {
        type            noSlip;
    }
    sWall
    {
        type            noSlip;
    }
    nWall
    {
        type            noSlip;
    }
    sideWalls
    {
        type            empty;
    }
    glass1
    {
        type            noSlip;
    }
    glass2
    {
        type            noSlip;
    }
    sun
    {
        type            noSlip;
    }
    heatsource1
    {
        type            noSlip;
    }
    heatsource2
    {
        type            noSlip;
    }
    Table_master
    {
        type            noSlip;
    }
    Table_slave
    {
        type            noSlip;
    }
    inlet
    {
        type            fixedValue;
        value           uniform (0.1 0 0);
    }
    outlet
    {
        type            zeroGradient;
    }
}


// ************************************************************************* //
