/*--------------------------------*- C++ -*----------------------------------*\
  =========                 |
  \\      /  F ield         | OpenFOAM: The Open Source CFD Toolbox
   \\    /   O peration     | Website:  https://openfoam.org
    \\  /    A nd           | Version:  6
     \\/     M anipulation  |
\*---------------------------------------------------------------------------*/
FoamFile
{
    version     2.0;
    format      ascii;
    class       volScalarField;
    location    "80";
    object      alphat;
}
// * * * * * * * * * * * * * * * * * * * * * * * * * * * * * * * * * * * * * //

dimensions      [1 -1 -1 0 0 0 0];

internalField   nonuniform List<scalar> 
459
(
0.00167278
0.00188007
0.00200032
0.0019645
0.00170765
0.00148134
0.00131682
0.00120414
0.00112399
0.00106035
0.00100477
0.000956681
0.000915854
0.000879748
0.00084223
0.000677183
0.000858047
0.000837313
0.000840901
0.000836271
0.000798998
0.000733058
0.000679198
0.000632658
0.000591586
0.000554986
0.000522289
0.000492964
0.00046641
0.000442004
0.00041927
0.00040087
0.000409177
0.000379246
0.00207727
0.00567313
0.00750482
0.00905665
0.00908387
0.00791188
0.0065487
0.00550398
0.00482432
0.00448403
0.00431303
0.00401435
0.00351389
0.00283999
0.0019679
0.000884951
0.000678379
0.000798999
0.0034789
0.00332043
0.00304709
0.00258426
0.00207192
0.00175636
0.00154966
0.00141485
0.00130283
0.00120744
0.00112424
0.00104757
0.000972925
0.000899022
0.000839872
0.000830583
0.00117993
0.000524288
0.00207865
0.00385346
0.0054398
0.00814088
0.00973569
0.00999917
0.00952334
0.00862471
0.00720509
0.00602654
0.00558578
0.00529185
0.00464504
0.0036949
0.00264333
0.00168752
0.000937833
0.00107792
0.00397908
0.00376132
0.00305718
0.0022847
0.00161899
0.0006461
0.000544199
0.000509869
0.000478079
0.00044855
0.000422819
0.000399966
0.000380008
0.000370999
0.000625967
0.000848107
0.00190194
0.000680325
0.00302119
0.00361668
0.00384562
0.00430883
0.00558794
0.00709684
0.00827845
0.00887977
0.00886228
0.00797057
0.00687661
0.00648155
0.00594764
0.00489502
0.00359779
0.00238022
0.00155101
0.00122782
0.00261832
0.00361727
0.003296
0.00259427
0.00195054
0.00138408
0.000956822
0.00097497
0.000988513
0.000975734
0.000962977
0.000951722
0.000931901
0.000894862
0.000844143
0.000931711
0.00109876
0.00209168
0.00082485
0.00407049
0.00482251
0.00470169
0.00451041
0.00478593
0.00570661
0.00695252
0.00808666
0.00880616
0.00884204
0.00818321
0.00773279
0.00762549
0.00712627
0.0063228
0.00541561
0.00456638
0.00393494
0.00356181
0.00371103
0.00347867
0.00317708
0.00301423
0.00300693
0.00315129
0.00341977
0.00371809
0.00395926
0.0039912
0.00394988
0.0038413
0.00365181
0.00329288
0.00281189
0.00229738
0.00193588
0.00161094
0.000915934
0.000982892
0.00113018
0.00435624
0.00581767
0.00545861
0.00493126
0.00485873
0.00540981
0.00645959
0.00763825
0.00855964
0.00891017
0.00865396
0.00855408
0.00870784
0.00864983
0.00825998
0.00766438
0.00690079
0.00602428
0.00514477
0.00443906
0.00385089
0.00344286
0.0031868
0.00306715
0.00311048
0.00331635
0.00366479
0.00406597
0.00426537
0.00429253
0.00425169
0.00417361
0.00405163
0.00373863
0.00325444
0.00243339
0.0020409
0.0016364
0.00202433
0.00122984
0.00460359
0.00621124
0.00561436
0.00480887
0.00488866
0.00540786
0.00637614
0.00750388
0.00841787
0.00882017
0.00869375
0.00858807
0.00899537
0.00929764
0.00925044
0.00893326
0.00837302
0.00757925
0.00661454
0.00560975
0.00471082
0.00399756
0.00344233
0.00302427
0.00279979
0.0028349
0.00316356
0.00367566
0.00398363
0.00407363
0.00409892
0.00413761
0.00419786
0.00417567
0.00385093
0.00330462
0.00286762
0.00266405
0.00256352
0.00150322
0.00491057
0.00597539
0.00562297
0.00496092
0.00531455
0.00577017
0.00658618
0.0076263
0.00843684
0.00877174
0.00864519
0.00844755
0.0086097
0.00908829
0.00939987
0.00935801
0.00904521
0.00847657
0.00769101
0.00677763
0.00584428
0.0049602
0.00413501
0.00336337
0.00276353
0.00249841
0.00273681
0.00338061
0.00385521
0.0039702
0.00400144
0.00410325
0.00433128
0.00468271
0.00481769
0.00479298
0.00510106
0.00548832
0.00597905
0.00201755
0.0053701
0.00624786
0.00813987
0.00546627
0.00600616
0.00670098
0.00719907
0.00796617
0.00862235
0.00887583
0.00868895
0.00838936
0.00827687
0.00844061
0.00873203
0.00886207
0.00876369
0.0084319
0.00789886
0.00723433
0.00652009
0.005799
0.00503804
0.00410543
0.00310816
0.00233482
0.00234781
0.00309692
0.00387495
0.00402805
0.00392113
0.00382175
0.00376881
0.00373077
0.00368581
0.00361137
0.00343101
0.00312153
0.00282099
0.00184415
0.0117663
0.00640307
0.00625934
0.00776034
0.00806526
0.00852515
0.00894421
0.00905394
0.0087159
0.00826279
0.00789006
0.00768497
0.00762922
0.00761233
0.00753044
0.00733926
0.00703038
0.00663258
0.00619559
0.00575877
0.00531282
0.00475438
0.00382192
0.00235818
0.00192705
0.00262615
0.00378068
0.00422507
0.0041496
0.00399515
0.00392354
0.00388455
0.00380148
0.0036278
0.00332887
0.00291264
0.00243545
0.00150285
0.00451571
0.00428485
0.00685739
0.00760838
0.00797549
0.00826929
0.00842304
0.00823867
0.00767901
0.00706918
0.00652094
0.00608803
0.00577107
0.00553129
0.00532789
0.00515317
0.00498537
0.00481065
0.00463293
0.00446664
0.00430562
0.00405427
0.0034487
0.00230618
0.00148989
0.00196867
0.00311688
0.00374575
0.00390227
0.00387065
0.00391815
0.00401281
0.00408021
0.00407455
0.00393637
0.00372161
0.00308485
0.00152887
0.00226887
0.00261741
0.00294872
0.00195668
0.00204293
0.00216979
0.00224351
0.00225486
0.00220272
0.00204479
0.00190691
0.00177993
0.001666
0.00156538
0.00147708
0.00140168
0.00133839
0.0012842
0.00123691
0.00119484
0.00115696
0.00112281
0.00109176
0.00106038
0.00102005
0.000967495
0.000921394
0.00098481
0.00108806
0.00113474
0.00118317
0.00125291
0.00133899
0.00144471
0.00156469
0.00168776
0.00171886
0.00166563
0.00154766
0.0014208
)
;

boundaryField
{
    floor
    {
        type            compressible::alphatWallFunction;
        Prt             0.85;
        value           nonuniform List<scalar> 
29
(
0.000119825
9.57806e-05
0.000122067
0.000119125
0.000119656
0.000118999
0.000113628
0.000104039
9.61313e-05
8.92361e-05
8.30986e-05
7.75847e-05
7.26202e-05
6.81345e-05
6.40435e-05
6.02574e-05
5.67065e-05
5.38089e-05
5.50901e-05
5.03765e-05
5.03758e-05
7.2858e-05
9.61904e-05
0.00011722
0.000119824
9.57794e-05
0.00011355
0.000153178
0.000173973
)
;
    }
    ceiling
    {
        type            compressible::alphatWallFunction;
        Prt             0.85;
        value           nonuniform List<scalar> 
43
(
0.000311991
0.000356424
0.000398082
0.000271593
0.000282836
0.000299273
0.000308778
0.000310238
0.000303524
0.000283072
0.000265082
0.000248387
0.000233297
0.000219875
0.000208017
0.000197828
0.000189228
0.000181827
0.000175339
0.000169545
0.000164306
0.000159566
0.00015524
0.00015085
0.000145182
0.000137766
0.000131244
0.000140324
0.000154718
0.0001612
0.000167905
0.000177506
0.000189271
0.000203601
0.000219722
0.000236129
0.000240251
0.000233188
0.000217445
0.000200368
0.000690909
0.000793383
0.000589452
)
;
    }
    sWall
    {
        type            compressible::alphatWallFunction;
        Prt             0.85;
        value           uniform 0.000310875;
    }
    nWall
    {
        type            compressible::alphatWallFunction;
        Prt             0.85;
        value           nonuniform List<scalar> 6(0.00016017 0.000173926 0.00021107 0.000211057 0.000214549 0.000199994);
    }
    sideWalls
    {
        type            empty;
    }
    glass1
    {
        type            compressible::alphatWallFunction;
        Prt             0.85;
        value           nonuniform List<scalar> 9(0.000228439 0.000281029 0.000281391 0.000399943 0.000528 0.000562112 0.000591445 0.000627656 0.000681529);
    }
    glass2
    {
        type            compressible::alphatWallFunction;
        Prt             0.85;
        value           nonuniform List<scalar> 2(0.000276954 0.000254483);
    }
    sun
    {
        type            compressible::alphatWallFunction;
        Prt             0.85;
        value           nonuniform List<scalar> 
14
(
0.000234017
0.000261362
0.000277053
0.000272369
0.000238618
0.000208408
0.000186134
0.000170685
0.000159596
0.000150723
0.000142923
0.000136136
0.000130344
0.000125198
)
;
    }
    heatsource1
    {
        type            compressible::alphatWallFunction;
        Prt             0.85;
        value           nonuniform List<scalar> 3(0.000130481 0.000140009 0.000160619);
    }
    heatsource2
    {
        type            compressible::alphatWallFunction;
        Prt             0.85;
        value           nonuniform List<scalar> 4(0.000126141 9.61613e-05 9.61602e-05 0.000133683);
    }
    Table_master
    {
        type            compressible::alphatWallFunction;
        Prt             0.85;
        value           nonuniform List<scalar> 9(9.14392e-05 7.6138e-05 7.0901e-05 6.60191e-05 6.1451e-05 5.74384e-05 5.3847e-05 5.06889e-05 4.92498e-05);
    }
    Table_slave
    {
        type            compressible::alphatWallFunction;
        Prt             0.85;
        value           nonuniform List<scalar> 9(0.000136354 0.000138914 0.000140802 0.000138978 0.000137174 0.000135578 0.000132762 0.000127485 0.000120226);
    }
    inlet
    {
        type            fixedValue;
        value           uniform 1.94e-05;
    }
    outlet
    {
        type            zeroGradient;
    }
}


// ************************************************************************* //
