/*--------------------------------*- C++ -*----------------------------------*\
  =========                 |
  \\      /  F ield         | OpenFOAM: The Open Source CFD Toolbox
   \\    /   O peration     | Website:  https://openfoam.org
    \\  /    A nd           | Version:  6
     \\/     M anipulation  |
\*---------------------------------------------------------------------------*/
FoamFile
{
    version     2.0;
    format      ascii;
    class       volScalarField;
    location    "80";
    object      epsilon;
}
// * * * * * * * * * * * * * * * * * * * * * * * * * * * * * * * * * * * * * //

dimensions      [0 2 -3 0 0 0 0];

internalField   nonuniform List<scalar> 
459
(
0.00104855
0.00148548
0.00178825
0.00169266
0.00111149
0.000725521
0.000509797
0.0003898
0.000317033
0.000266149
0.000226429
0.000195441
0.000171476
0.000151998
0.000133391
6.91927e-05
0.000140755
0.000130974
0.000132761
0.000130629
0.000113948
8.79806e-05
6.99662e-05
5.6535e-05
4.62131e-05
3.8147e-05
3.17874e-05
2.67231e-05
2.26294e-05
1.92567e-05
1.64331e-05
1.43563e-05
1.52438e-05
1.21471e-05
0.00201687
0.00259673
0.00402309
0.00481827
0.00385037
0.00246755
0.00137685
0.000695397
0.000414852
0.000269795
0.000187963
0.000149579
0.000135721
0.000130828
0.000128017
0.000154765
6.96497e-05
0.000113606
0.00023823
0.000123647
0.00011078
0.000107977
0.000102091
6.73898e-05
5.29661e-05
4.39367e-05
3.64039e-05
3.00267e-05
2.47778e-05
2.05137e-05
1.70441e-05
1.43198e-05
1.2167e-05
1.41102e-05
6.27417e-05
3.20487e-05
0.00202817
0.0033044
0.00462547
0.00693321
0.00754972
0.00644447
0.00471758
0.00261099
0.00126633
0.000608647
0.000306615
0.000188877
0.000152384
0.000146687
0.000151089
0.000161989
0.000184259
0.000279376
0.000259622
0.000144918
0.000118278
0.00011217
0.000111836
6.02932e-05
3.59779e-05
2.95646e-05
2.43639e-05
2.0121e-05
1.6852e-05
1.4263e-05
1.22316e-05
1.13769e-05
2.04055e-05
3.32968e-05
0.00025409
6.99799e-05
0.00624264
0.00677354
0.00585214
0.0052039
0.00523127
0.00530819
0.00497951
0.004188
0.00323189
0.00166882
0.000606114
0.000284073
0.000189084
0.000167422
0.000173407
0.000203073
0.000274759
0.000413417
0.000267517
0.000152071
0.000107437
9.52731e-05
0.000102369
0.000130894
0.000195656
0.000206924
0.000215476
0.000207059
0.000199017
0.000192084
0.000180284
0.000159581
0.000133942
0.000103814
9.82033e-05
0.000520335
0.000124683
0.0153188
0.012864
0.00921793
0.00660224
0.00514374
0.00455452
0.00426322
0.00386425
0.0032576
0.00235431
0.00115239
0.000455939
0.000252255
0.000194344
0.000173992
0.000162332
0.000155084
0.000148583
0.000121422
8.8916e-05
7.40548e-05
7.34399e-05
7.96222e-05
9.20821e-05
0.000110987
0.000130206
0.00014696
0.000149467
0.000144514
0.000143019
0.000137962
0.000124451
0.000103789
8.93683e-05
8.69776e-05
0.000228339
0.000219723
0.000170961
0.000211638
0.000321773
0.0187485
0.0173082
0.0102568
0.00633967
0.00461978
0.00391189
0.0036243
0.00336138
0.00292786
0.00224581
0.00135464
0.00061944
0.000330353
0.000244121
0.000216651
0.000198311
0.000173039
0.000140589
0.00010811
8.50415e-05
7.53611e-05
7.5106e-05
7.92309e-05
8.6629e-05
9.90616e-05
0.000116623
0.00013612
0.000148233
0.000154027
0.000166207
0.000178054
0.000178328
0.000155429
0.000121541
0.00010373
0.000139457
0.000166536
0.000155197
0.000409092
0.000414416
0.0220942
0.0227071
0.0122576
0.00497214
0.00351604
0.00313344
0.00300296
0.00284622
0.00251804
0.00197167
0.00128271
0.000690808
0.000390357
0.000289772
0.00026114
0.000249145
0.000229306
0.000196182
0.000156311
0.000122471
0.000102791
9.49947e-05
9.30946e-05
9.38612e-05
9.89377e-05
0.00011259
0.000135488
0.000157945
0.000174023
0.000202911
0.00024188
0.000277915
0.000291115
0.000240986
0.000208053
0.000224585
0.000290179
0.000409932
0.000764832
0.00075686
0.026772
0.0307632
0.0225735
0.00431166
0.00279011
0.00260994
0.0025376
0.00241943
0.00214263
0.00168723
0.0011432
0.000692197
0.000437125
0.000329084
0.000295912
0.000289354
0.000278686
0.000254078
0.000217831
0.000180385
0.000151928
0.000135248
0.000126459
0.00011966
0.000113733
0.000118071
0.000143305
0.000182297
0.000215992
0.000263172
0.000332269
0.000423959
0.000533343
0.000647446
0.000732058
0.00109627
0.00194004
0.00309116
0.00746607
0.00183489
0.0349587
0.0548726
0.0642487
0.0131247
0.00286327
0.00243195
0.00226202
0.00212042
0.00186955
0.00146428
0.00102909
0.000683389
0.000474471
0.000371354
0.000329435
0.000316159
0.000308033
0.00029203
0.000265842
0.0002353
0.000208192
0.000189171
0.000178536
0.000170414
0.000150733
0.000132319
0.000154176
0.000214413
0.000276592
0.00034386
0.000434157
0.000565087
0.000740193
0.000957559
0.00122339
0.00155383
0.00191522
0.00219229
0.00242779
0.00140388
0.141411
0.0300697
0.00366333
0.00236172
0.00211654
0.00195541
0.00172503
0.00134008
0.000979968
0.000707653
0.000532866
0.000432324
0.000379329
0.000352801
0.000337197
0.000321795
0.000302368
0.000280345
0.000259977
0.000245606
0.000240127
0.000241923
0.000220513
0.000157149
0.000161357
0.000241056
0.000333538
0.000414135
0.000482301
0.000572045
0.000711577
0.000901016
0.00111525
0.00131446
0.00143529
0.00139326
0.00114625
0.000759161
0.020704
0.00340434
0.00211099
0.00195378
0.00197994
0.0019149
0.00173504
0.00136641
0.00105295
0.000823488
0.000663973
0.000556798
0.000484598
0.000434744
0.000399648
0.000373264
0.000351475
0.000332249
0.000315515
0.000302236
0.000291927
0.000276969
0.000235981
0.000169637
0.00015706
0.000258626
0.00037735
0.000414721
0.000456969
0.000525113
0.000648358
0.000829427
0.00105317
0.00128762
0.00144194
0.00148216
0.00100581
0.000799164
0.00263164
0.00403635
0.00577054
0.00168904
0.00192265
0.00230353
0.00254609
0.00258418
0.00240791
0.00192477
0.00156048
0.0012687
0.00104012
0.000862677
0.000724659
0.000619175
0.000538955
0.000476036
0.0004253
0.000383317
0.000347951
0.000317994
0.000292273
0.000267706
0.000238193
0.000203159
0.000175469
0.000214361
0.000288026
0.000326592
0.000370213
0.000439614
0.000536571
0.000673895
0.000856026
0.00107457
0.00113513
0.00103296
0.000828669
0.000641383
)
;

boundaryField
{
    floor
    {
        Cmu             0.09;
        kappa           0.41;
        E               9.8;
        type            epsilonWallFunction;
        value           nonuniform List<scalar> 
29
(
0.000133391
6.91927e-05
0.000140755
0.000130974
0.000132761
0.000130629
0.000113948
8.79806e-05
6.99662e-05
5.6535e-05
4.62131e-05
3.8147e-05
3.17874e-05
2.67231e-05
2.26294e-05
1.92567e-05
1.64331e-05
1.43563e-05
1.52438e-05
1.21471e-05
1.21471e-05
3.20487e-05
6.99799e-05
0.000124683
0.000133391
6.91927e-05
0.000113606
0.000279376
0.000413417
)
;
    }
    ceiling
    {
        Cmu             0.09;
        kappa           0.41;
        E               9.8;
        type            epsilonWallFunction;
        value           nonuniform List<scalar> 
43
(
0.00263164
0.00403635
0.00577054
0.00168904
0.00192265
0.00230353
0.00254609
0.00258418
0.00240791
0.00192477
0.00156048
0.0012687
0.00104012
0.000862677
0.000724659
0.000619175
0.000538955
0.000476036
0.0004253
0.000383317
0.000347951
0.000317994
0.000292273
0.000267706
0.000238193
0.000203159
0.000175469
0.000214361
0.000288026
0.000326592
0.000370213
0.000439614
0.000536571
0.000673895
0.000856026
0.00107457
0.00113513
0.00103296
0.000828669
0.000641383
0.0349587
0.0548726
0.020704
)
;
    }
    sWall
    {
        Cmu             0.09;
        kappa           0.41;
        E               9.8;
        type            epsilonWallFunction;
        value           uniform 0.00263164;
    }
    nWall
    {
        Cmu             0.09;
        kappa           0.41;
        E               9.8;
        type            epsilonWallFunction;
        value           nonuniform List<scalar> 6(0.000321773 0.000414416 0.00075686 0.000759161 0.000799164 0.000641383);
    }
    sideWalls
    {
        type            empty;
    }
    glass1
    {
        Cmu             0.09;
        kappa           0.41;
        E               9.8;
        type            epsilonWallFunction;
        value           nonuniform List<scalar> 9(0.00104855 0.00201687 0.00202817 0.00624264 0.0153188 0.0187485 0.0220942 0.026772 0.0349587);
    }
    glass2
    {
        Cmu             0.09;
        kappa           0.41;
        E               9.8;
        type            epsilonWallFunction;
        value           nonuniform List<scalar> 2(0.00183489 0.00140388);
    }
    sun
    {
        Cmu             0.09;
        kappa           0.41;
        E               9.8;
        type            epsilonWallFunction;
        value           nonuniform List<scalar> 
14
(
0.00104855
0.00148548
0.00178825
0.00169266
0.00111149
0.000725521
0.000509797
0.0003898
0.000317033
0.000266149
0.000226429
0.000195441
0.000171476
0.000151998
)
;
    }
    heatsource1
    {
        Cmu             0.09;
        kappa           0.41;
        E               9.8;
        type            epsilonWallFunction;
        value           nonuniform List<scalar> 3(0.000170961 0.000211638 0.000321773);
    }
    heatsource2
    {
        Cmu             0.09;
        kappa           0.41;
        E               9.8;
        type            epsilonWallFunction;
        value           nonuniform List<scalar> 4(0.000154765 6.96497e-05 6.96497e-05 0.000184259);
    }
    Table_master
    {
        Cmu             0.09;
        kappa           0.41;
        E               9.8;
        type            epsilonWallFunction;
        value           nonuniform List<scalar> 9(6.02932e-05 3.59779e-05 2.95646e-05 2.43639e-05 2.0121e-05 1.6852e-05 1.4263e-05 1.22316e-05 1.13769e-05);
    }
    Table_slave
    {
        Cmu             0.09;
        kappa           0.41;
        E               9.8;
        type            epsilonWallFunction;
        value           nonuniform List<scalar> 9(0.000195656 0.000206924 0.000215476 0.000207059 0.000199017 0.000192084 0.000180284 0.000159581 0.000133942);
    }
    inlet
    {
        type            turbulentMixingLengthDissipationRateInlet;
        mixingLength    0.01;
        phi             phi;
        k               k;
        value           uniform 3.77336e-06;
    }
    outlet
    {
        type            zeroGradient;
    }
}


// ************************************************************************* //
