/*--------------------------------*- C++ -*----------------------------------*\
  =========                 |
  \\      /  F ield         | OpenFOAM: The Open Source CFD Toolbox
   \\    /   O peration     | Website:  https://openfoam.org
    \\  /    A nd           | Version:  6
     \\/     M anipulation  |
\*---------------------------------------------------------------------------*/
FoamFile
{
    version     2.0;
    format      ascii;
    class       volScalarField;
    location    "80";
    object      nut;
}
// * * * * * * * * * * * * * * * * * * * * * * * * * * * * * * * * * * * * * //

dimensions      [0 2 -1 0 0 0 0];

internalField   nonuniform List<scalar> 
459
(
0.00143651
0.00161335
0.00171647
0.00168542
0.00146471
0.00127043
0.00112926
0.00103259
0.000963826
0.000909229
0.000861548
0.000820292
0.00078527
0.0007543
0.000722132
0.000580355
0.000735353
0.000717635
0.000720775
0.00071684
0.000684874
0.000628307
0.000582098
0.000542169
0.000506935
0.000475542
0.000447503
0.000422362
0.000399602
0.000378687
0.000359209
0.000343446
0.000350568
0.000324955
0.00178567
0.00487443
0.00645106
0.00778172
0.0078009
0.00679153
0.00561951
0.00472193
0.00413831
0.00384603
0.00369907
0.00344271
0.00301336
0.00243532
0.00168738
0.000758731
0.00058147
0.000684773
0.00298175
0.00284625
0.00261223
0.00221557
0.00177623
0.00150541
0.00132802
0.00121234
0.00111624
0.00103444
0.000963103
0.000897388
0.000833423
0.000770107
0.000719438
0.000711488
0.00101079
0.000449216
0.00178901
0.00331689
0.00468294
0.00700582
0.00837402
0.00859573
0.00818228
0.00740589
0.00618415
0.00517104
0.00479191
0.00453923
0.00398411
0.00316892
0.00226683
0.00144699
0.000804063
0.00092398
0.00341118
0.00322487
0.00262139
0.00195907
0.00138817
0.000553735
0.00046628
0.000436813
0.000409547
0.000384231
0.000362178
0.000342595
0.000325497
0.00031778
0.000536215
0.000726513
0.00162935
0.000582919
0.00260498
0.00311765
0.00331456
0.00371326
0.0048137
0.0061101
0.00712283
0.00763518
0.00761543
0.00684367
0.00590119
0.005561
0.00510238
0.004199
0.00308591
0.00204132
0.00133
0.00105278
0.00224493
0.0031018
0.00282659
0.00222492
0.00167282
0.00118695
0.000820497
0.000836012
0.000847565
0.000836551
0.000825581
0.000815905
0.000798884
0.000767099
0.000723584
0.000798584
0.000941668
0.00179237
0.00070679
0.00351125
0.00415606
0.00405129
0.00388641
0.00412339
0.0049152
0.00598551
0.00695782
0.00757204
0.00759741
0.00702583
0.00663632
0.00654331
0.0061145
0.00542472
0.00464599
0.00391708
0.00337516
0.00305498
0.00318315
0.00298405
0.00272539
0.00258563
0.00257922
0.00270285
0.00293289
0.00318846
0.00339499
0.0034222
0.00338665
0.00329343
0.00313083
0.00282292
0.00241038
0.00196912
0.00165903
0.00138043
0.000784962
0.000842506
0.000968817
0.00375571
0.00500822
0.00469867
0.00424612
0.00418477
0.00465937
0.00556195
0.00657367
0.0073623
0.00765862
0.00743312
0.00734351
0.00747393
0.00742362
0.00708871
0.00657723
0.0059216
0.0051692
0.00441438
0.00380888
0.00330426
0.00295412
0.0027343
0.00263146
0.00266838
0.00284467
0.00314315
0.00348685
0.00365764
0.00368082
0.00364567
0.00357856
0.00347372
0.00320507
0.00278968
0.00208561
0.00174903
0.00140237
0.00173489
0.00105411
0.00396697
0.00534299
0.00483045
0.00413958
0.00420998
0.00465742
0.00549014
0.00645846
0.0072412
0.00758259
0.00746929
0.00737498
0.00772289
0.00798163
0.00794082
0.0076683
0.00718713
0.00650554
0.00567734
0.00481486
0.00404326
0.00343099
0.00295431
0.0025953
0.00240238
0.00243213
0.00271361
0.0031524
0.00341633
0.00349342
0.00351502
0.00354806
0.00359947
0.00358005
0.00330126
0.00283259
0.00245779
0.00228325
0.0021971
0.00128846
0.00422918
0.00513933
0.00483757
0.00427094
0.00457654
0.00496907
0.00567069
0.00656363
0.00725761
0.00754157
0.00742894
0.00725631
0.00739396
0.00780409
0.00807123
0.00803506
0.00776627
0.00727782
0.00660319
0.00581889
0.00501748
0.00425835
0.00354974
0.00288706
0.00237186
0.00214392
0.00234792
0.00289959
0.00330643
0.00340499
0.00343174
0.00351898
0.00371438
0.00401541
0.00413056
0.00410903
0.004373
0.00470513
0.00512608
0.00173068
0.00462258
0.00537215
0.00699865
0.00470549
0.00517153
0.00576978
0.00619757
0.00685564
0.00741709
0.00763139
0.00746767
0.00720806
0.00711013
0.00725006
0.00749989
0.00761129
0.00752656
0.0072414
0.00678344
0.0062126
0.00559911
0.00497974
0.00432612
0.00352503
0.00266841
0.00200407
0.00201462
0.00265649
0.00332358
0.00345487
0.0033632
0.00327801
0.00323267
0.00320013
0.0031617
0.00309806
0.00294369
0.00267851
0.00242086
0.00158295
0.0101025
0.00551009
0.00538808
0.00668041
0.006942
0.0073359
0.00769378
0.00778484
0.00749191
0.00710092
0.00677966
0.00660286
0.00655456
0.00653974
0.00646913
0.00630468
0.00603914
0.00569726
0.00532174
0.00494638
0.00456316
0.0040833
0.00328221
0.00202481
0.00165406
0.00225292
0.00324293
0.00362411
0.00355947
0.0034271
0.00336579
0.00333247
0.00326136
0.00311256
0.00285632
0.00249936
0.00208997
0.00128973
0.00388265
0.0036871
0.00590148
0.00654798
0.00686338
0.0071149
0.00724528
0.00708425
0.0066016
0.00607643
0.00560461
0.00523214
0.00495947
0.00475319
0.00457821
0.0044279
0.00428356
0.0041333
0.00398046
0.00383745
0.00369895
0.00348286
0.00296249
0.00198093
0.00127938
0.00168913
0.00267371
0.00321312
0.00334744
0.00332042
0.00336126
0.00344259
0.00350057
0.0034959
0.00337755
0.00319345
0.00264699
0.001312
0.00195212
0.00225134
0.0025363
0.00168356
0.00175781
0.00186697
0.00193031
0.00193988
0.00189469
0.00175841
0.00163963
0.0015303
0.00143225
0.00134568
0.00126971
0.00120485
0.0011504
0.00110378
0.00106309
0.00102691
0.000994312
0.00096493
0.000938203
0.000911203
0.000876518
0.000831314
0.000791557
0.000845248
0.000933441
0.00097348
0.00101504
0.00107487
0.00114873
0.00123944
0.00134242
0.00144807
0.0014748
0.00142915
0.00132794
0.00121924
)
;

boundaryField
{
    floor
    {
        type            nutkWallFunction;
        Cmu             0.09;
        kappa           0.41;
        E               9.8;
        value           nonuniform List<scalar> 
29
(
8.74592e-05
6.99002e-05
8.90579e-05
8.69197e-05
8.73136e-05
8.68375e-05
8.29209e-05
7.59263e-05
7.01574e-05
6.5127e-05
6.06494e-05
5.66272e-05
5.30062e-05
4.97349e-05
4.67517e-05
4.39911e-05
4.14021e-05
3.92895e-05
4.02242e-05
3.67897e-05
3.67896e-05
5.31804e-05
7.01872e-05
8.55156e-05
8.74592e-05
6.99001e-05
8.28547e-05
0.000111753
0.000126939
)
;
    }
    ceiling
    {
        type            nutkWallFunction;
        Cmu             0.09;
        kappa           0.41;
        E               9.8;
        value           nonuniform List<scalar> 
43
(
0.000228185
0.000260609
0.000291066
0.000198645
0.000206872
0.000218894
0.000225836
0.000226882
0.000221936
0.000206936
0.000193761
0.000181544
0.000170505
0.000160689
0.000152017
0.000144568
0.000138279
0.000132867
0.000128123
0.000123885
0.000120054
0.000116588
0.000113423
0.000110213
0.000106069
0.000100648
9.58684e-05
0.000102416
0.000112873
0.000117599
0.00012249
0.000129493
0.000138074
0.000148527
0.000160287
0.00017226
0.000175271
0.000170123
0.000158641
0.000146202
0.000505534
0.000579884
0.000430818
)
;
    }
    sWall
    {
        type            nutkWallFunction;
        Cmu             0.09;
        kappa           0.41;
        E               9.8;
        value           uniform 0.000228243;
    }
    nWall
    {
        type            nutkWallFunction;
        Cmu             0.09;
        kappa           0.41;
        E               9.8;
        value           nonuniform List<scalar> 6(0.00011704 0.000127057 0.00015414 0.000154295 0.000156838 0.000146214);
    }
    sideWalls
    {
        type            empty;
    }
    glass1
    {
        type            nutkWallFunction;
        Cmu             0.09;
        kappa           0.41;
        E               9.8;
        value           nonuniform List<scalar> 9(0.000171167 0.000210274 0.000210648 0.000298722 0.000393505 0.000418575 0.000440098 0.00046665 0.00050618);
    }
    glass2
    {
        type            nutkWallFunction;
        Cmu             0.09;
        kappa           0.41;
        E               9.8;
        value           nonuniform List<scalar> 2(0.000203953 0.000187514);
    }
    sun
    {
        type            nutkWallFunction;
        Cmu             0.09;
        kappa           0.41;
        E               9.8;
        value           nonuniform List<scalar> 
14
(
0.000170949
0.000190783
0.000202222
0.000198771
0.000174118
0.000152071
0.000135822
0.000124554
0.000116466
0.000109994
0.000104305
9.9354e-05
9.51295e-05
9.13765e-05
)
;
    }
    heatsource1
    {
        type            nutkWallFunction;
        Cmu             0.09;
        kappa           0.41;
        E               9.8;
        value           nonuniform List<scalar> 3(9.50486e-05 0.000102009 0.000117033);
    }
    heatsource2
    {
        type            nutkWallFunction;
        Cmu             0.09;
        kappa           0.41;
        E               9.8;
        value           nonuniform List<scalar> 4(9.19263e-05 7.00599e-05 7.00598e-05 9.74226e-05);
    }
    Table_master
    {
        type            nutkWallFunction;
        Cmu             0.09;
        kappa           0.41;
        E               9.8;
        value           nonuniform List<scalar> 9(6.66128e-05 5.54515e-05 5.16312e-05 4.80726e-05 4.4744e-05 4.18209e-05 3.92053e-05 3.69054e-05 3.58577e-05);
    }
    Table_slave
    {
        type            nutkWallFunction;
        Cmu             0.09;
        kappa           0.41;
        E               9.8;
        value           nonuniform List<scalar> 9(9.93865e-05 0.000101247 0.000102616 0.000101279 9.99609e-05 9.87945e-05 9.6739e-05 9.28896e-05 8.7596e-05);
    }
    inlet
    {
        type            calculated;
        value           uniform 3.3541e-05;
    }
    outlet
    {
        type            calculated;
        value           nonuniform List<scalar> 2(0.00195212 0.00225134);
    }
}


// ************************************************************************* //
