/*--------------------------------*- C++ -*----------------------------------*\
  =========                 |
  \\      /  F ield         | OpenFOAM: The Open Source CFD Toolbox
   \\    /   O peration     | Website:  https://openfoam.org
    \\  /    A nd           | Version:  6
     \\/     M anipulation  |
\*---------------------------------------------------------------------------*/
FoamFile
{
    version     2.0;
    format      ascii;
    class       surfaceScalarField;
    location    "80";
    object      phi;
}
// * * * * * * * * * * * * * * * * * * * * * * * * * * * * * * * * * * * * * //

dimensions      [1 0 -1 0 0 0 0];

internalField   nonuniform List<scalar> 
852
(
-0.00346135
0.00351876
-0.00427754
0.000816654
-0.00404481
-0.000232251
-0.00377929
-0.000265147
-0.00375213
-2.69064e-05
-0.00378191
2.99812e-05
-0.00372597
-5.57727e-05
-0.00353933
-0.000186475
-0.00323344
-0.00030573
-0.00281577
-0.000417515
-0.00232484
-0.000490781
-0.00180315
-0.000521553
-0.00126188
-0.000541131
-0.000663796
-0.000597958
-0.000660224
-0.000540791
0.000545076
-0.000395518
-0.000145161
-0.000124453
-0.000270945
0.000256197
-0.000380524
0.00072232
-0.000465999
0.00105033
-0.000327887
0.00102005
3.03947e-05
0.000950742
6.94237e-05
0.00088139
6.94574e-05
0.000816602
6.48818e-05
0.000765145
5.15368e-05
0.000729034
3.61784e-05
0.000704839
2.42509e-05
0.000687791
1.70948e-05
0.000670909
1.69201e-05
0.000670565
3.75575e-07
0.000709883
-3.92969e-05
0.000733849
-2.39483e-05
0.000740064
-0.00222706
0.00590088
-0.00185158
0.000441832
-0.000886463
-0.00119649
-0.000696612
-0.000454305
-0.0011868
0.000463745
-0.00190491
0.000748427
-0.00253189
0.000571463
-0.00283616
0.000117988
-0.00285222
-0.000289522
-0.0026605
-0.000609092
-0.00234295
-0.000808197
-0.00195989
-0.000904493
-0.00151751
-0.000983394
-0.0010404
-0.00107495
-0.000574437
-0.00112609
0.000309103
-0.000883499
0.000309172
-1.82139e-05
0.000574578
-0.000335213
0.000171954
-0.000428764
-0.000177277
-0.000285893
-0.000523282
4.76252e-05
-0.000799415
0.000375926
-0.000656107
0.000387031
1.93629e-05
0.000409689
4.68309e-05
0.000404105
7.51025e-05
0.000400947
6.80937e-05
0.000403876
4.86539e-05
0.000408098
3.19928e-05
0.000411461
2.09172e-05
0.000413928
1.465e-05
0.000393542
3.73232e-05
0.000380667
1.32631e-05
0.000408016
-6.66336e-05
0.000423623
-3.95419e-05
0.00117896
0.00187229
0.00427881
0.00375422
-0.0014393
0.00414
-0.00158156
0.00358512
0.000101293
0.00266159
0.00138791
0.00150556
0.00190496
0.000202886
0.0018745
-0.00103208
0.00135323
-0.0018817
0.000560273
-0.00217446
-0.000316203
-0.00217353
-0.000809009
-0.00207405
-0.00100386
-0.00191492
-0.00114242
-0.00171917
-0.00127062
-0.00150642
-0.00133875
-0.00116651
-0.00122333
-0.000857266
-0.000643196
0.00123266
-0.000934233
0.000463098
-0.00107235
-3.90607e-05
-0.0010792
-0.000516339
-0.000933893
-0.000944639
-0.00023799
-0.00135196
-0.000218476
-0.000171468
-9.6179e-05
-2.79012e-05
2.09298e-05
5.30941e-05
7.41792e-05
8.89946e-05
0.000126486
0.000218638
-7.88127e-05
0.000180462
-2.83961e-05
0.000207437
-6.6448e-05
0.0014078
0.00847483
-0.00390814
0.0111005
-0.00406459
0.0108686
-0.00134925
0.00964498
0.00132528
0.00793257
0.00310073
0.00597069
0.00386723
0.00400518
0.00384032
0.00212027
0.00323837
0.000355576
0.00232512
-0.00102471
0.00106424
-0.00172346
-0.00011015
-0.00201803
-0.000709198
-0.00220596
-0.0009544
-0.00237485
-0.00110165
-0.00255332
-0.00116021
-0.00271113
-0.00106545
-0.00291248
-0.000655848
-0.0027159
-0.000180999
-0.00195829
0.000475147
-0.00188507
0.000389965
-0.00189212
-3.19271e-05
-0.00192513
-0.000483242
-0.0019936
-0.000876082
-0.0023099
-0.00103557
-0.00148876
-0.000821189
-0.000663153
-0.000825639
0.000167309
-0.000830463
0.000856899
-0.000689612
0.00143011
-0.000573235
0.00191446
-0.000484371
0.00227971
-0.000365267
0.00246087
-0.000181177
0.0023965
6.43622e-05
0.00198158
0.000336259
0.00127589
0.000677464
0.000168972
0.00104062
0.0016029
0.00742049
-0.0110115
0.00951538
-0.00615948
0.00933203
-0.00116592
0.0085816
0.00207576
0.00752044
0.00416204
0.00614771
0.00524016
0.00461118
0.00537706
0.00305737
0.00479234
0.00160786
0.00377474
0.000191509
0.00248066
-0.000949596
0.00103102
-0.00161286
-4.58513e-05
-0.00201143
-0.000555744
-0.00232634
-0.000786665
-0.00260941
-0.000877071
-0.0028544
-0.000820408
-0.00293629
-0.000573904
-0.00290139
-0.000215848
-0.00252974
0.000103564
-0.00221932
7.96226e-05
-0.00205924
-0.000191938
-0.00199316
-0.000549239
-0.00197697
-0.00089218
-0.00189652
-0.00111591
-0.00147136
-0.00124623
-0.000889377
-0.00140748
-0.00022584
-0.00149385
0.00040814
-0.00132346
0.000942037
-0.00110702
0.00140839
-0.000950605
0.00179729
-0.000754051
0.00206622
-0.000449977
0.00214375
-1.30367e-05
0.00199149
0.000488664
0.00165592
0.00101318
0.0010841
0.00161261
0.000746474
0.00194061
-0.000716017
0.00146233
-0.00131987
0.000603697
-0.00126165
0.00316603
-0.013799
0.00414502
-0.00713844
0.00468869
-0.00170954
0.00467721
0.00208733
0.00445356
0.00438582
0.00396772
0.00572617
0.00326983
0.00607511
0.00244998
0.00561233
0.00158567
0.00463914
0.000701261
0.00336512
-0.000212577
0.00194489
-0.00095473
0.000696371
-0.0014409
-6.94932e-05
-0.00177613
-0.000451356
-0.00204454
-0.000608595
-0.00225614
-0.000608746
-0.00235518
-0.000474802
-0.00230923
-0.000261748
-0.00210631
-9.93155e-05
-0.00190713
-0.000119503
-0.00179433
-0.000304665
-0.00176042
-0.000583062
-0.00175683
-0.000895676
-0.00167651
-0.00119612
-0.00142676
-0.00149584
-0.00102674
-0.00180734
-0.000525015
-0.0019954
-1.85286e-05
-0.00182981
0.000425271
-0.00155071
0.000830144
-0.00135537
0.00121379
-0.00113759
0.00156129
-0.000797356
0.00181186
-0.000263478
0.00191565
0.000385017
0.00195707
0.000971907
0.0020562
0.00151362
0.00232937
0.00166756
0.00255865
0.00123313
0.00211994
0.00104248
0.000926025
-0.000348207
-0.0130091
0.000248145
-0.00773466
0.00114273
-0.00260399
0.000935569
0.00229464
0.00118073
0.00414081
0.00140829
0.00549879
0.00146093
0.00602262
0.00133996
0.00573341
0.00108853
0.00489064
0.000746112
0.00370758
0.000291324
0.0023997
-0.000227691
0.00121543
-0.00067482
0.000377708
-0.000999517
-0.000126582
-0.00122768
-0.000380355
-0.00138816
-0.000448206
-0.00146342
-0.000399479
-0.00143488
-0.000290222
-0.00133155
-0.000202592
-0.00123914
-0.000211845
-0.00121354
-0.000330191
-0.00125919
-0.000537331
-0.00134124
-0.00081352
-0.00138501
-0.00115222
-0.00132198
-0.00155871
-0.00111304
-0.00201609
-0.000763131
-0.00234509
-0.000413774
-0.00217903
-0.000147685
-0.0018167
0.000104205
-0.00160716
0.000382035
-0.00141532
0.000713385
-0.00112859
0.00110182
-0.000651785
0.00145538
3.15865e-05
0.00175117
0.000676243
0.00217273
0.00109218
0.00275525
0.00108517
0.00331868
0.00066979
0.00325827
0.00110298
0.00425314
-0.00295734
-0.00955034
-0.00437839
-0.00631347
-0.00357945
-0.00340276
-0.00287162
0.00158696
-0.00181411
0.00308346
-0.000870951
0.00455578
-0.000167166
0.00531896
0.000291052
0.0052753
0.000543638
0.00463812
0.00066926
0.003582
0.000636444
0.00243255
0.000448579
0.00140334
0.000185894
0.000640455
-7.31476e-05
0.000132528
-0.000278358
-0.000175072
-0.000415276
-0.000311219
-0.000481826
-0.000332865
-0.000478124
-0.000293862
-0.000430261
-0.000250394
-0.000392655
-0.000249387
-0.000414137
-0.000308637
-0.000519174
-0.000432209
-0.000701409
-0.000631179
-0.000910439
-0.000943054
-0.00107631
-0.00139266
-0.001101
-0.00199116
-0.00092467
-0.00252115
-0.000725296
-0.00237824
-0.00070295
-0.00183895
-0.000745803
-0.00156422
-0.000774238
-0.00138679
-0.000719336
-0.00118339
-0.000500807
-0.000870196
-6.94532e-05
-0.000399627
0.000375284
0.000231621
0.000762158
0.000705417
0.0010801
0.000767322
0.00123002
0.000519963
0.000583846
0.00174922
0.00516837
-0.00899532
-0.0153066
-0.0102567
-0.00845257
-0.00628366
-0.00238593
-0.00412794
0.000927878
-0.00261686
0.00304483
-0.00142701
0.00412923
-0.000515505
0.00436389
0.000144688
0.003978
0.000653648
0.00307309
0.00095797
0.00212827
0.00105975
0.00130161
0.00102176
0.000678505
0.000901733
0.000252625
0.000752701
-2.59703e-05
0.000625992
-0.000184441
0.000542553
-0.000249361
0.000506852
-0.000258098
0.000504247
-0.000247726
0.000502501
-0.000247578
0.000465409
-0.000271476
0.000357158
-0.000323881
0.000140407
-0.000414332
-0.000199602
-0.000602909
-0.000615244
-0.000976834
-0.000928082
-0.00167805
-0.000946955
-0.00250191
-0.000854359
-0.00247062
-0.00110897
-0.00158425
-0.00157005
-0.00110305
-0.0021373
-0.000819453
-0.00278559
-0.000535006
-0.00350981
-0.000145875
-0.00429323
0.000383885
-0.00513179
0.00107027
-0.0062176
0.0017913
-0.00777845
0.00232824
-0.00961233
0.0023539
-0.00881236
0.000949308
-0.0032738
-0.00841482
0.000537881
-0.00668139
-0.00411925
-0.00504954
-0.000703847
-0.00358426
0.00157966
-0.00221061
0.00275569
-0.00100084
0.00315421
-1.11598e-05
0.00298839
0.000798768
0.00226322
0.00135698
0.00157012
0.00167537
0.000983275
0.00181241
0.00054153
0.00182827
0.000236831
0.00176478
3.75885e-05
0.00166652
-8.61121e-05
0.00157275
-0.000155522
0.00150064
-0.000185921
0.00144885
-0.000195877
0.00140224
-0.000200905
0.0013394
-0.000208569
0.00123506
-0.000219466
0.00105529
-0.000234476
0.000731548
-0.000279061
0.000198778
-0.000443928
-0.000437493
-0.00104152
-0.000741323
-0.00219761
-0.000703605
-0.00250801
-0.00102519
-0.00126256
-0.0015811
-0.000547076
-0.00214267
-0.000257814
-0.00261121
-6.64025e-05
-0.00298969
0.000232681
-0.00331324
0.000707514
-0.00357383
0.00133093
-0.00371941
0.00193695
-0.00366155
0.00227044
-0.00318388
0.00187629
-0.00175055
-0.000483984
-0.00493067
-0.00183384
0.00237446
-0.00439248
-0.00156052
-0.00471637
-0.000379855
-0.00388427
0.000747671
-0.00256893
0.00144045
-0.00115919
0.00174457
0.000131393
0.00169789
0.00117732
0.00121737
0.00190396
0.000843549
0.00235691
0.0005304
0.00259964
0.000298872
0.00269663
0.000139912
0.00269726
3.70323e-05
0.00264368
-3.24639e-05
0.00256581
-7.75837e-05
0.00248191
-0.000101958
0.0023996
-0.000113496
0.00231724
-0.000118482
0.00222805
-0.000119307
0.00212209
-0.000113435
0.00198347
-9.57714e-05
0.00177851
-7.40188e-05
0.00144062
-0.000105944
0.000805659
-0.000406424
-9.79381e-05
-0.00129341
-0.000656745
-0.00194865
-0.000995254
-0.000923953
-0.00128967
-0.000252606
-0.00153064
-1.67922e-05
-0.00170838
0.000111393
-0.00175139
0.000275753
-0.00162078
0.000576967
-0.00130557
0.00101578
-0.000760993
0.00139243
0.000185997
0.0013235
0.00140713
0.0006552
0.00160356
-0.000680371
-0.00322444
-0.00317861
-0.0054037
-0.00302529
-0.00458183
-0.00495792
-0.00420663
-0.00276246
-0.00101381
0.000688892
0.00191227
0.00276268
0.0033007
0.00360787
0.00375671
0.00380328
0.00378092
0.00371398
0.0036232
0.00352139
0.00341511
0.00330851
0.00320829
0.00312625
0.0030665
0.0029755
0.00258495
0.00130957
-0.000614879
-0.00151407
-0.00174265
-0.00173618
-0.00160252
-0.00130561
-0.000708721
0.000325725
0.00173554
0.003076
0.00374844
0.00308627
)
;

boundaryField
{
    floor
    {
        type            calculated;
        value           nonuniform List<scalar> 
29
(
0
0
0
0
0
0
0
0
0
0
0
0
0
0
0
0
0
0
0
0
-6.19324e-06
-1.52538e-05
-2.1373e-05
-2.60753e-05
-3.44877e-06
-4.19316e-06
-1.12019e-05
-1.47968e-05
-1.55055e-05
)
;
    }
    ceiling
    {
        type            calculated;
        value           nonuniform List<scalar> 
43
(
-3.61783e-06
-4.21834e-06
-3.89026e-06
-3.88462e-06
-3.66752e-06
-3.52118e-06
-3.61447e-06
-3.99497e-06
-4.72506e-06
-5.92487e-06
-6.77545e-06
-7.52643e-06
-8.21327e-06
-8.85213e-06
-9.45489e-06
-1.00283e-05
-1.05766e-05
-1.11063e-05
-1.16228e-05
-1.21315e-05
-1.26373e-05
-1.31428e-05
-1.36536e-05
-1.41972e-05
-1.48564e-05
-1.5765e-05
-1.76292e-05
-2.3218e-05
-2.4681e-05
-2.39769e-05
-2.32186e-05
-2.22204e-05
-2.11004e-05
-1.9872e-05
-1.86116e-05
-1.73426e-05
-1.69049e-05
-1.71988e-05
-1.81501e-05
-1.87495e-05
-8.28965e-07
-2.03174e-06
-2.66044e-06
)
;
    }
    sWall
    {
        type            calculated;
        value           uniform -0.000201703;
    }
    nWall
    {
        type            calculated;
        value           nonuniform List<scalar> 6(-5.8375e-05 -6.76689e-05 -6.87734e-05 -9.36404e-05 -0.000102623 -0.000119386);
    }
    sideWalls
    {
        type            empty;
        value           nonuniform 0();
    }
    glass1
    {
        type            calculated;
        value           nonuniform List<scalar> 9(-5.69891e-05 -0.000154566 -0.000249732 -0.000287295 -0.00031707 -0.000378428 -0.000441588 -0.000501299 -0.000554066);
    }
    glass2
    {
        type            calculated;
        value           nonuniform List<scalar> 2(-0.000331316 -0.000370126);
    }
    sun
    {
        type            calculated;
        value           uniform 0;
    }
    heatsource1
    {
        type            calculated;
        value           nonuniform List<scalar> 3(2.06096e-07 2.06079e-07 2.06094e-07);
    }
    heatsource2
    {
        type            calculated;
        value           nonuniform List<scalar> 4(5.15441e-08 5.16542e-08 0 0);
    }
    Table_master
    {
        type            calculated;
        value           nonuniform List<scalar> 9(-1.54979e-07 -1.55092e-07 -1.55152e-07 -1.55205e-07 -1.5524e-07 -1.55253e-07 -1.55255e-07 -1.55257e-07 -1.55242e-07);
    }
    Table_slave
    {
        type            calculated;
        value           nonuniform List<scalar> 9(1.54084e-07 1.54373e-07 1.54606e-07 1.54615e-07 1.54439e-07 1.54292e-07 1.54186e-07 1.54146e-07 1.54171e-07);
    }
    inlet
    {
        type            calculated;
        value           uniform -0.00057552;
    }
    outlet
    {
        type            calculated;
        value           nonuniform List<scalar> 2(0.003384 0.00222938);
    }
}


// ************************************************************************* //
