/*--------------------------------*- C++ -*----------------------------------*\
  =========                 |
  \\      /  F ield         | OpenFOAM: The Open Source CFD Toolbox
   \\    /   O peration     | Website:  https://openfoam.org
    \\  /    A nd           | Version:  6
     \\/     M anipulation  |
\*---------------------------------------------------------------------------*/
FoamFile
{
    version     2.0;
    format      ascii;
    class       volScalarField;
    location    "80";
    object      T;
}
// * * * * * * * * * * * * * * * * * * * * * * * * * * * * * * * * * * * * * //

dimensions      [0 0 0 1 0 0 0];

internalField   nonuniform List<scalar> 
459
(
302.444
302.224
302.212
302.156
302.085
302.046
302.024
302.011
302.002
301.994
301.986
301.979
301.973
301.968
301.968
301.831
301.828
301.85
301.877
301.891
301.884
301.862
301.839
301.815
301.793
301.774
301.759
301.748
301.741
301.738
301.737
301.738
301.743
301.771
302.743
302.598
302.73
302.603
302.44
302.311
302.21
302.14
302.101
302.072
302.048
302.03
302.015
301.999
301.978
301.949
301.87
301.833
301.853
301.888
301.92
301.935
301.921
301.861
301.811
301.773
301.743
301.72
301.703
301.691
301.684
301.68
301.68
301.682
301.694
301.752
303.1
303.135
303.174
303.07
302.916
302.743
302.581
302.404
302.271
302.18
302.121
302.086
302.063
302.04
302.011
301.977
301.94
301.878
301.91
301.945
301.972
301.979
301.964
301.826
301.748
301.712
301.689
301.674
301.664
301.658
301.654
301.655
301.678
301.681
301.698
301.75
303.649
303.573
303.533
303.488
303.37
303.2
303.005
302.805
302.618
302.375
302.212
302.148
302.116
302.091
302.06
302.022
301.983
301.957
301.943
301.98
302.011
302.026
302.023
302.007
301.989
301.972
301.951
301.93
301.919
301.908
301.898
301.885
301.869
301.846
301.814
301.772
301.76
303.774
303.49
303.441
303.437
303.406
303.319
303.176
302.998
302.805
302.586
302.35
302.223
302.18
302.158
302.137
302.111
302.083
302.06
302.047
302.064
302.085
302.09
302.083
302.066
302.044
302.02
301.993
301.967
301.953
301.942
301.931
301.916
301.897
301.872
301.839
301.796
301.767
301.801
301.858
301.878
303.603
303.152
303.123
303.221
303.301
303.299
303.213
303.068
302.889
302.685
302.47
302.313
302.249
302.228
302.214
302.198
302.181
302.165
302.156
302.157
302.161
302.158
302.146
302.125
302.097
302.063
302.024
301.992
301.975
301.965
301.955
301.941
301.92
301.892
301.859
301.819
301.787
301.787
301.798
301.831
303.443
302.916
302.972
303.13
303.253
303.274
303.209
303.082
302.918
302.731
302.544
302.4
302.327
302.298
302.287
302.277
302.266
302.255
302.247
302.243
302.24
302.232
302.217
302.192
302.157
302.111
302.056
302.011
301.993
301.985
301.977
301.965
301.944
301.912
301.877
301.842
301.814
301.805
301.807
301.833
303.271
302.864
302.948
303.157
303.234
303.244
303.186
303.066
302.915
302.749
302.593
302.476
302.41
302.376
302.36
302.352
302.343
302.335
302.327
302.321
302.316
302.308
302.292
302.266
302.226
302.169
302.097
302.029
302.008
302.002
301.999
301.993
301.979
301.953
301.909
301.884
301.874
301.883
301.898
302.064
303.109
302.771
302.757
303.117
303.193
303.191
303.139
303.037
302.904
302.755
302.632
302.543
302.488
302.458
302.438
302.426
302.417
302.409
302.4
302.393
302.386
302.378
302.366
302.343
302.305
302.244
302.153
302.048
302.021
302.019
302.022
302.026
302.032
302.042
302.054
302.075
302.111
302.15
302.179
302.251
302.327
303.01
303.105
303.116
303.077
302.997
302.89
302.76
302.669
302.604
302.562
302.536
302.518
302.503
302.491
302.481
302.471
302.462
302.453
302.444
302.432
302.416
302.393
302.34
302.236
302.074
302.033
302.033
302.041
302.051
302.062
302.073
302.088
302.107
302.132
302.155
302.167
302.182
302.747
302.989
303.026
303.035
303.011
302.955
302.875
302.771
302.706
302.661
302.63
302.608
302.592
302.577
302.564
302.553
302.542
302.531
302.52
302.509
302.497
302.482
302.467
302.449
302.359
302.113
302.045
302.041
302.046
302.055
302.064
302.075
302.088
302.104
302.122
302.138
302.131
302.162
302.946
302.857
302.856
302.954
302.961
302.962
302.948
302.916
302.862
302.789
302.749
302.72
302.699
302.683
302.669
302.657
302.646
302.635
302.624
302.613
302.602
302.591
302.579
302.567
302.556
302.541
302.485
302.204
302.065
302.063
302.065
302.067
302.071
302.075
302.083
302.096
302.107
302.112
302.114
302.15
)
;

boundaryField
{
    floor
    {
        type            wallHeatTransfer;
        Tinf            uniform 305.2;
        alphaWall       uniform 0.24;
        value           nonuniform List<scalar> 
29
(
302.426
302.386
302.299
302.326
302.348
302.362
302.371
302.383
302.392
302.4
302.409
302.42
302.434
302.451
302.471
302.493
302.518
302.541
302.535
302.593
302.593
302.428
302.318
302.254
302.426
302.386
302.327
302.271
302.305
)
;
    }
    ceiling
    {
        type            wallHeatTransfer;
        Tinf            uniform 303.2;
        alphaWall       uniform 0.24;
        value           nonuniform List<scalar> 
43
(
302.963
302.877
302.874
302.972
302.979
302.978
302.965
302.935
302.885
302.819
302.783
302.759
302.741
302.729
302.719
302.71
302.701
302.693
302.685
302.677
302.669
302.661
302.652
302.643
302.635
302.625
302.58
302.329
302.198
302.192
302.19
302.187
302.184
302.182
302.182
302.189
302.197
302.205
302.212
302.251
303.112
302.783
302.764
)
;
    }
    sWall
    {
        type            wallHeatTransfer;
        Tinf            uniform 315.2;
        alphaWall       uniform 0.36;
        value           uniform 304.13;
    }
    nWall
    {
        type            wallHeatTransfer;
        Tinf            uniform 307.2;
        alphaWall       uniform 0.36;
        value           nonuniform List<scalar> 6(302.742 302.651 302.542 302.844 302.819 302.845);
    }
    sideWalls
    {
        type            empty;
    }
    glass1
    {
        type            wallHeatTransfer;
        Tinf            uniform 315.2;
        alphaWall       uniform 4.3;
        value           nonuniform List<scalar> 9(310.461 310.013 310.158 309.454 308.769 308.502 308.271 308.006 307.681);
    }
    glass2
    {
        type            wallHeatTransfer;
        Tinf            uniform 307.2;
        alphaWall       uniform 4.3;
        value           nonuniform List<scalar> 2(305.078 305.247);
    }
    sun
    {
        type            wallHeatTransfer;
        Tinf            uniform 305.2;
        alphaWall       uniform 0.24;
        value           nonuniform List<scalar> 
14
(
302.677
302.453
302.431
302.382
302.344
302.339
302.347
302.359
302.369
302.378
302.386
302.395
302.403
302.412
)
;
    }
    heatsource1
    {
        type            fixedGradient;
        gradient        uniform 0;
    }
    heatsource2
    {
        type            fixedGradient;
        gradient        uniform 0;
    }
    Table_master
    {
        type            zeroGradient;
    }
    Table_slave
    {
        type            zeroGradient;
    }
    inlet
    {
        type            fixedValue;
        value           uniform 290.15;
    }
    outlet
    {
        type            zeroGradient;
    }
}


// ************************************************************************* //
