/*--------------------------------*- C++ -*----------------------------------*\
  =========                 |
  \\      /  F ield         | OpenFOAM: The Open Source CFD Toolbox
   \\    /   O peration     | Website:  https://openfoam.org
    \\  /    A nd           | Version:  6
     \\/     M anipulation  |
\*---------------------------------------------------------------------------*/
FoamFile
{
    version     2.0;
    format      ascii;
    class       volVectorField;
    location    "80";
    object      U;
}
// * * * * * * * * * * * * * * * * * * * * * * * * * * * * * * * * * * * * * //

dimensions      [0 1 -1 0 0 0 0];

internalField   nonuniform List<vector> 
459
(
(-0.0147084 0.0961401 0)
(-0.184596 0.0135938 0)
(-0.175289 -0.0103967 0)
(-0.163983 -0.00814686 0)
(-0.162364 -0.00319704 0)
(-0.163252 -0.00361831 0)
(-0.162553 -0.00649313 0)
(-0.156896 -0.00969476 0)
(-0.145919 -0.0126306 0)
(-0.130163 -0.015521 0)
(-0.110489 -0.0175833 0)
(-0.0879455 -0.0187798 0)
(-0.063527 -0.0202981 0)
(-0.0434834 -0.0235152 0)
(-0.0541877 -0.0267877 0)
(0.0266706 0.00976997 0)
(-0.0276228 -0.00465814 0)
(-0.0125221 -0.0109168 0)
(0.00264844 -0.0157575 0)
(0.0206598 -0.0189452 0)
(0.0359907 -0.0137869 0)
(0.0470277 -0.00606787 0)
(0.045099 -0.00263663 0)
(0.0401324 -0.00103958 0)
(0.0362169 -0.000309312 0)
(0.0335901 -0.000124858 0)
(0.03182 -0.00020744 0)
(0.0306091 -0.000350795 0)
(0.029775 -0.000446323 0)
(0.0290956 -0.000419622 0)
(0.028781 -0.000663455 0)
(0.0294692 -0.00142547 0)
(0.0387503 -0.00132037 0)
(-0.0279267 0.0191976 0)
(0.161708 0.184009 0)
(-0.126712 0.00794875 0)
(-0.0400087 -0.0412497 0)
(-0.0302131 -0.0121267 0)
(-0.039814 0.0119161 0)
(-0.0666313 0.0129525 0)
(-0.0979934 0.0026924 0)
(-0.119211 -0.00913954 0)
(-0.123927 -0.0182339 0)
(-0.119254 -0.0260696 0)
(-0.107873 -0.0309128 0)
(-0.0925279 -0.0332784 0)
(-0.0744955 -0.0355498 0)
(-0.0549433 -0.0393349 0)
(-0.0368432 -0.043776 0)
(-0.0178995 -0.0458225 0)
(0.024718 0.00117613 0)
(0.101769 0.0274818 0)
(-0.0250997 0.0050031 0)
(-0.018761 -0.00820103 0)
(-0.0158016 -0.0190935 0)
(-0.00711963 -0.0280792 0)
(0.00207124 -0.0241255 0)
(0.0239046 -0.00099388 0)
(0.0206057 0.00326875 0)
(0.0176396 0.00490946 0)
(0.0168733 0.0050353 0)
(0.0170278 0.00436384 0)
(0.0173318 0.00354382 0)
(0.0175539 0.00289034 0)
(0.0176847 0.00244398 0)
(0.0172826 0.00223956 0)
(0.0167262 0.000693487 0)
(0.0164428 -0.00227699 0)
(0.0403768 -0.00242818 0)
(-0.0954116 0.0392948 0)
(0.429571 0.304583 0)
(0.108311 0.0117281 0)
(0.162929 -0.0418527 0)
(0.163919 -0.00158066 0)
(0.139371 0.0395217 0)
(0.0924008 0.0542139 0)
(0.0393751 0.0479532 0)
(-0.0223934 0.0203702 0)
(-0.0684316 -0.00940424 0)
(-0.090454 -0.0286939 0)
(-0.0947667 -0.0391579 0)
(-0.0917278 -0.0444876 0)
(-0.0856922 -0.0489533 0)
(-0.0777653 -0.053837 0)
(-0.0691291 -0.0567452 0)
(-0.0617684 -0.0523237 0)
(-0.0584704 -0.038382 0)
(0.0635515 0.0436267 0)
(-0.0477525 0.0146788 0)
(-0.0440517 -0.00333835 0)
(-0.0455146 -0.0221841 0)
(-0.0441859 -0.0389863 0)
(-0.0459577 -0.048635 0)
(0.0166498 -0.00583264 0)
(-0.00449481 -0.00152078 0)
(-0.00600353 -0.000598558 0)
(-0.00338441 -0.00116016 0)
(-0.000418128 -0.00204046 0)
(0.00157785 -0.00272834 0)
(0.00276234 -0.00317432 0)
(0.00334067 -0.00331158 0)
(0.00184674 -0.000741097 0)
(0.0101656 -0.00022977 0)
(0.00652716 -0.00288641 0)
(0.0545173 -0.00382775 0)
(-0.156861 0.0543481 0)
(0.692374 0.075094 0)
(0.428656 -0.0549092 0)
(0.43994 -0.0258394 0)
(0.452377 0.0477929 0)
(0.390911 0.104411 0)
(0.302198 0.129363 0)
(0.212936 0.127191 0)
(0.128855 0.104009 0)
(0.0543635 0.0670672 0)
(-0.0234109 0.0103302 0)
(-0.0659852 -0.0264428 0)
(-0.0819158 -0.039824 0)
(-0.0908436 -0.0470541 0)
(-0.0978203 -0.0519141 0)
(-0.105237 -0.0521764 0)
(-0.115456 -0.0412095 0)
(-0.128375 -0.00886718 0)
(-0.124901 0.051592 0)
(-0.07946 0.0386821 0)
(-0.090741 0.0193769 0)
(-0.0812916 -0.0016408 0)
(-0.0813182 -0.0223167 0)
(-0.0867508 -0.0394456 0)
(-0.0942778 -0.0472365 0)
(-0.0835209 -0.0338007 0)
(-0.0490232 -0.0323336 0)
(-0.0116125 -0.031628 0)
(0.0239582 -0.0255026 0)
(0.0492082 -0.0209911 0)
(0.0717432 -0.0174652 0)
(0.0902839 -0.0134978 0)
(0.102846 -0.00828379 0)
(0.10694 -0.00235162 0)
(0.0976181 0.00478383 0)
(0.072559 0.0153529 0)
(0.079492 0.0253507 0)
(-0.193959 0.0664082 0)
(0.755738 -0.441989 0)
(0.301969 -0.299606 0)
(0.362952 -0.126072 0)
(0.400396 0.0276569 0)
(0.364492 0.135852 0)
(0.299864 0.189543 0)
(0.231318 0.198618 0)
(0.16308 0.176075 0)
(0.0982419 0.135188 0)
(0.0366174 0.0821432 0)
(-0.0224128 0.0195861 0)
(-0.0597097 -0.0189343 0)
(-0.0789283 -0.0338438 0)
(-0.0933656 -0.0417588 0)
(-0.106392 -0.0456602 0)
(-0.118399 -0.0444809 0)
(-0.126609 -0.034746 0)
(-0.127248 -0.0122456 0)
(-0.114719 0.0117732 0)
(-0.101877 0.0106152 0)
(-0.0910941 -0.004952 0)
(-0.0867447 -0.0221846 0)
(-0.086421 -0.0374707 0)
(-0.0845557 -0.0461614 0)
(-0.0731462 -0.0453595 0)
(-0.0513505 -0.0497198 0)
(-0.0253153 -0.0520411 0)
(0.00502608 -0.0449008 0)
(0.0295345 -0.0371066 0)
(0.0504846 -0.0310874 0)
(0.0688977 -0.0234564 0)
(0.0834436 -0.0120252 0)
(0.0923307 0.00346945 0)
(0.0914133 0.0201043 0)
(0.0787227 0.038122 0)
(0.0894036 0.0582299 0)
(-0.0149491 0.077702 0)
(0.0631921 0.0384455 0)
(-0.0464552 -0.0230835 0)
(-0.301887 -0.0509933 0)
(0.698151 -0.572476 0)
(-0.00250338 -0.304733 0)
(0.153768 -0.0491615 0)
(0.22506 0.105416 0)
(0.215287 0.194015 0)
(0.187403 0.242253 0)
(0.157161 0.251466 0)
(0.122601 0.228412 0)
(0.0853262 0.185128 0)
(0.0472955 0.129586 0)
(0.00802648 0.0675329 0)
(-0.0282192 0.0142093 0)
(-0.0537178 -0.0140907 0)
(-0.0698022 -0.0264838 0)
(-0.082593 -0.0312585 0)
(-0.0932214 -0.0299924 0)
(-0.100169 -0.023041 0)
(-0.10114 -0.0124316 0)
(-0.0953184 -0.00234645 0)
(-0.0859307 -0.00221965 0)
(-0.0787177 -0.0116723 0)
(-0.0760296 -0.0252971 0)
(-0.0760167 -0.0395353 0)
(-0.0746375 -0.051364 0)
(-0.0674562 -0.0605199 0)
(-0.0533037 -0.0704188 0)
(-0.0340629 -0.0760449 0)
(-0.011615 -0.0692667 0)
(0.00954227 -0.0586583 0)
(0.0267364 -0.0511542 0)
(0.0433665 -0.0419267 0)
(0.0590126 -0.0272749 0)
(0.0733108 -0.00514181 0)
(0.082325 0.0203219 0)
(0.082784 0.04488 0)
(0.0969626 0.069947 0)
(0.0767304 0.080252 0)
(0.11069 0.0644956 0)
(0.127326 0.048462 0)
(-0.113924 0.011424 0)
(0.59121 -0.58179 0)
(-0.220171 -0.313944 0)
(0.0309452 -0.0795577 0)
(0.0836784 0.108757 0)
(0.0573713 0.198434 0)
(0.0605776 0.252817 0)
(0.0645706 0.268191 0)
(0.0611018 0.249968 0)
(0.0516479 0.209734 0)
(0.0382398 0.15604 0)
(0.0209786 0.0969253 0)
(0.000494593 0.0433208 0)
(-0.0202568 0.00680625 0)
(-0.0371533 -0.0127434 0)
(-0.048406 -0.0212428 0)
(-0.0568288 -0.0226482 0)
(-0.0620264 -0.0189319 0)
(-0.0629407 -0.0126089 0)
(-0.0597366 -0.00746615 0)
(-0.054962 -0.00789925 0)
(-0.0520718 -0.0142822 0)
(-0.0526685 -0.0249652 0)
(-0.0559144 -0.0382058 0)
(-0.0591103 -0.0526163 0)
(-0.0589859 -0.0681584 0)
(-0.0530858 -0.0846245 0)
(-0.0409416 -0.0955499 0)
(-0.0247561 -0.0886756 0)
(-0.0112129 -0.0754938 0)
(-0.00125993 -0.0669885 0)
(0.00946038 -0.0584829 0)
(0.0214485 -0.0453241 0)
(0.0365425 -0.0231957 0)
(0.0574724 0.00846168 0)
(0.069208 0.0365187 0)
(0.0872995 0.0595346 0)
(0.10074 0.0641851 0)
(0.129843 0.0477399 0)
(0.170736 0.0489475 0)
(-0.0320074 0.110506 0)
(0.383455 -0.465438 0)
(-0.297157 -0.278428 0)
(-0.220374 -0.135003 0)
(-0.06655 0.110995 0)
(-0.098627 0.168147 0)
(-0.0537509 0.226819 0)
(-0.0187261 0.252908 0)
(0.00457494 0.243423 0)
(0.0181067 0.20973 0)
(0.0255858 0.161066 0)
(0.0275296 0.107536 0)
(0.023393 0.0595007 0)
(0.0143275 0.0241877 0)
(0.0025254 0.000931613 0)
(-0.00821262 -0.0121801 0)
(-0.015335 -0.016749 0)
(-0.0198117 -0.016233 0)
(-0.0211517 -0.0131119 0)
(-0.0197757 -0.0102208 0)
(-0.0174683 -0.0101659 0)
(-0.0167031 -0.0137946 0)
(-0.0192833 -0.0211072 0)
(-0.0256236 -0.0321374 0)
(-0.0347139 -0.0472611 0)
(-0.0437773 -0.0667528 0)
(-0.047918 -0.0897721 0)
(-0.0437603 -0.107915 0)
(-0.0349393 -0.101195 0)
(-0.0285889 -0.0820999 0)
(-0.0309227 -0.0715057 0)
(-0.03325 -0.0641602 0)
(-0.0341507 -0.0557037 0)
(-0.0307628 -0.043234 0)
(-0.0166509 -0.0250464 0)
(0.0123325 0.00189011 0)
(0.0275232 0.0198052 0)
(0.0404146 0.0161029 0)
(0.056047 -0.000888753 0)
(0.127717 0.0649756 0)
(-0.503947 0.246306 0)
(0.101501 -0.336186 0)
(-0.58896 -0.273375 0)
(-0.73801 -0.23876 0)
(-0.199906 -0.015326 0)
(-0.228109 0.0975733 0)
(-0.141745 0.170933 0)
(-0.0834061 0.20989 0)
(-0.0396367 0.213293 0)
(-0.00728909 0.190155 0)
(0.0177311 0.147178 0)
(0.0348263 0.101525 0)
(0.0440841 0.0611596 0)
(0.0458584 0.0308033 0)
(0.0425099 0.0100791 0)
(0.0356884 -0.00341171 0)
(0.0294978 -0.0106775 0)
(0.0247628 -0.0131745 0)
(0.0221272 -0.012872 0)
(0.0214547 -0.0118368 0)
(0.0216818 -0.0117248 0)
(0.0212107 -0.0132519 0)
(0.0184754 -0.0166967 0)
(0.0121262 -0.0227851 0)
(-0.000548194 -0.0345972 0)
(-0.0190173 -0.0543127 0)
(-0.0347674 -0.0825194 0)
(-0.0387262 -0.109278 0)
(-0.0395594 -0.103801 0)
(-0.0385843 -0.0754046 0)
(-0.0562002 -0.059505 0)
(-0.078648 -0.0483879 0)
(-0.104753 -0.0354638 0)
(-0.135091 -0.0167429 0)
(-0.168155 0.0090323 0)
(-0.200178 0.0378594 0)
(-0.238459 0.0639309 0)
(-0.294232 0.0822643 0)
(-0.354944 0.0902587 0)
(-0.425583 0.0884762 0)
(-0.701321 0.0758822 0)
(-1.56153 -0.25734 0)
(-0.125227 -0.160299 0)
(-0.256474 -0.00371999 0)
(-0.184794 0.0993836 0)
(-0.122288 0.150187 0)
(-0.0672005 0.16485 0)
(-0.021661 0.153234 0)
(0.0190658 0.117573 0)
(0.047108 0.0820261 0)
(0.0663377 0.0514187 0)
(0.0764431 0.0282302 0)
(0.079633 0.0120552 0)
(0.0782275 0.00120175 0)
(0.0740467 -0.00554128 0)
(0.0695529 -0.00896184 0)
(0.0658162 -0.0101854 0)
(0.0631715 -0.0104026 0)
(0.0612255 -0.0105558 0)
(0.0591247 -0.0111112 0)
(0.0558474 -0.0121939 0)
(0.0501333 -0.0139818 0)
(0.0395234 -0.0177149 0)
(0.0199429 -0.0269102 0)
(-0.00673454 -0.0547531 0)
(-0.0183807 -0.093137 0)
(-0.0368553 -0.092825 0)
(-0.0349772 -0.0511182 0)
(-0.0552139 -0.0335916 0)
(-0.0805933 -0.0244226 0)
(-0.102956 -0.0131272 0)
(-0.120243 0.00416816 0)
(-0.134382 0.02716 0)
(-0.146742 0.0555572 0)
(-0.157373 0.0823859 0)
(-0.16372 0.0946059 0)
(-0.146499 0.0702703 0)
(-0.0878972 -0.0359072 0)
(-0.289144 -0.248819 0)
(-0.305162 0.0507102 0)
(-0.0740475 -0.139925 0)
(-0.206457 -0.034683 0)
(-0.18907 0.0445759 0)
(-0.13852 0.090436 0)
(-0.0796788 0.108993 0)
(-0.0231996 0.106116 0)
(0.0318474 0.0797621 0)
(0.0673153 0.0562683 0)
(0.0929799 0.0374477 0)
(0.108303 0.0242256 0)
(0.115453 0.0161102 0)
(0.117194 0.0119081 0)
(0.115457 0.00992169 0)
(0.112223 0.00925457 0)
(0.108516 0.00971359 0)
(0.104854 0.0109416 0)
(0.101335 0.0125982 0)
(0.0977505 0.0145565 0)
(0.0937237 0.0169931 0)
(0.0886785 0.0202255 0)
(0.0812837 0.0235771 0)
(0.0688555 0.0223633 0)
(0.0504447 -0.0014327 0)
(0.0300966 -0.0679823 0)
(-0.0279772 -0.0910117 0)
(-0.0396562 -0.0171801 0)
(-0.0490356 0.0284242 0)
(-0.0614256 0.0403815 0)
(-0.070306 0.0386117 0)
(-0.074165 0.0384048 0)
(-0.0714452 0.0464659 0)
(-0.0618777 0.063839 0)
(-0.0455777 0.0842779 0)
(-0.0247171 0.0977545 0)
(0.0144271 0.0850851 0)
(0.140292 0.00718247 0)
(-0.19839 -0.163727 0)
(0.259149 -0.145195 0)
(-0.23662 -0.0940908 0)
(-0.194545 0.0627802 0)
(-0.154923 -0.0522234 0)
(-0.21537 -0.0151522 0)
(-0.198979 0.0173768 0)
(-0.14927 0.0399243 0)
(-0.0836568 0.0515396 0)
(-0.00985242 0.0504784 0)
(0.0595368 0.026733 0)
(0.10131 0.00881665 0)
(0.131519 -0.00672274 0)
(0.150411 -0.0201074 0)
(0.160188 -0.0317395 0)
(0.163952 -0.042045 0)
(0.163957 -0.0509957 0)
(0.161619 -0.0586484 0)
(0.157976 -0.0654542 0)
(0.153678 -0.0717928 0)
(0.149114 -0.0779646 0)
(0.144488 -0.0841587 0)
(0.139983 -0.0904444 0)
(0.135945 -0.0968786 0)
(0.132777 -0.103933 0)
(0.13009 -0.113084 0)
(0.12376 -0.126556 0)
(0.104906 -0.151974 0)
(0.00363062 -0.206043 0)
(-0.0605369 -0.198906 0)
(-0.0716519 -0.180362 0)
(-0.0760032 -0.163373 0)
(-0.0726894 -0.1393 0)
(-0.0618221 -0.112972 0)
(-0.040942 -0.0828653 0)
(-0.00897355 -0.0490216 0)
(0.0464251 -0.0151356 0)
(0.0962626 -0.0117894 0)
(0.145044 -0.0357058 0)
(0.191073 -0.0850934 0)
(-0.13604 -0.160648 0)
)
;

boundaryField
{
    floor
    {
        type            noSlip;
    }
    ceiling
    {
        type            noSlip;
    }
    sWall
    {
        type            noSlip;
    }
    nWall
    {
        type            noSlip;
    }
    sideWalls
    {
        type            empty;
    }
    glass1
    {
        type            noSlip;
    }
    glass2
    {
        type            noSlip;
    }
    sun
    {
        type            noSlip;
    }
    heatsource1
    {
        type            noSlip;
    }
    heatsource2
    {
        type            noSlip;
    }
    Table_master
    {
        type            noSlip;
    }
    Table_slave
    {
        type            noSlip;
    }
    inlet
    {
        type            fixedValue;
        value           uniform (0.1 0 0);
    }
    outlet
    {
        type            zeroGradient;
    }
}


// ************************************************************************* //
