/*--------------------------------*- C++ -*----------------------------------*\
  =========                 |
  \\      /  F ield         | OpenFOAM: The Open Source CFD Toolbox
   \\    /   O peration     | Website:  https://openfoam.org
    \\  /    A nd           | Version:  6
     \\/     M anipulation  |
\*---------------------------------------------------------------------------*/
FoamFile
{
    version     2.0;
    format      ascii;
    class       volScalarField;
    location    "1900";
    object      alphat;
}
// * * * * * * * * * * * * * * * * * * * * * * * * * * * * * * * * * * * * * //

dimensions      [1 -1 -1 0 0 0 0];

internalField   nonuniform List<scalar> 
459
(
0.0013226
0.00144955
0.00147747
0.00155043
0.00161883
0.00168368
0.00174831
0.00180783
0.00184794
0.00186187
0.00184368
0.00178971
0.00169884
0.00157647
0.00143841
0.000598681
0.000723665
0.000813654
0.00081153
0.000784802
0.000748777
0.000702632
0.000656668
0.000614912
0.000577828
0.000544982
0.000515798
0.000489864
0.000466572
0.000445112
0.000424446
0.000403129
0.000390015
0.000357684
0.00179962
0.00450613
0.00435267
0.00508009
0.00579779
0.00650579
0.00710827
0.0075826
0.00800291
0.00833606
0.00853884
0.00856671
0.0083517
0.0077189
0.00596414
0.00147789
0.000852668
0.000637077
0.00133836
0.00186586
0.00225189
0.00245821
0.00244752
0.00195167
0.00167911
0.00148529
0.00133692
0.00121914
0.00112332
0.00104036
0.000963245
0.000888584
0.000822343
0.000763765
0.000913117
0.000474393
0.00219284
0.00616072
0.00543023
0.00679485
0.00748942
0.00800984
0.00841579
0.00876064
0.0091258
0.00949487
0.00982061
0.0100491
0.0101174
0.00991779
0.00915135
0.00692842
0.00151181
0.00123497
0.00180575
0.00233821
0.00282377
0.00315429
0.00306371
0.000996978
0.000879865
0.000785733
0.00070982
0.000648029
0.000597196
0.000555057
0.000520168
0.000491968
0.000530993
0.000613296
0.00103768
0.000554321
0.00256692
0.0078386
0.00548993
0.00719526
0.00779534
0.0080242
0.00819629
0.00841207
0.00872904
0.00912818
0.00954692
0.00992014
0.0101763
0.0102253
0.00999511
0.00913224
0.0062483
0.00178319
0.00222912
0.00290221
0.00356285
0.00408585
0.00439522
0.00409634
0.00112101
0.00102086
0.000949491
0.000894812
0.000847731
0.000804518
0.00076289
0.000719194
0.00066855
0.000626233
0.000644588
0.00121928
0.000613462
0.00294594
0.00996707
0.00608028
0.00698977
0.00773944
0.00782011
0.00780658
0.00797011
0.00826007
0.00868387
0.0091583
0.00959657
0.00989364
0.00998443
0.00986017
0.00947843
0.00860935
0.00713921
0.00663585
0.00647536
0.00641578
0.00636094
0.00625823
0.00597315
0.00500128
0.00453815
0.00426769
0.00405713
0.00383625
0.00351926
0.00310143
0.00260531
0.00206379
0.00152787
0.0011299
0.00119251
0.000804595
0.000747343
0.000892447
0.000999544
0.00334579
0.0122719
0.00832836
0.00713347
0.00767358
0.00781789
0.00776743
0.00787492
0.00810319
0.00849121
0.00899502
0.00948342
0.00980626
0.00986971
0.00968433
0.00934899
0.00897211
0.00860907
0.00839401
0.00819581
0.00794636
0.00765814
0.00734571
0.00698837
0.00651939
0.00612179
0.0057835
0.00546893
0.0051548
0.00481169
0.00437374
0.00382527
0.00317095
0.00245703
0.0018359
0.00136846
0.00107602
0.000950393
0.00137592
0.00104883
0.00370049
0.0138333
0.0114686
0.00918691
0.00879283
0.00849065
0.00816119
0.00802906
0.00817216
0.00858296
0.00915415
0.00969879
0.0100252
0.0100257
0.00973689
0.0093442
0.00908709
0.00903674
0.00900861
0.00881315
0.00844542
0.00798299
0.00748221
0.00697283
0.0064794
0.00605326
0.00568347
0.00535067
0.00504916
0.00478321
0.00454852
0.00417469
0.0036461
0.00301288
0.0024209
0.00189111
0.00154591
0.00148113
0.00155709
0.00121095
0.00375899
0.0120612
0.0108948
0.0100874
0.00930542
0.0085205
0.00803299
0.0079705
0.00831994
0.00896465
0.0097022
0.0102886
0.0105276
0.0103558
0.00988833
0.00941586
0.00922064
0.00922952
0.00905222
0.00859911
0.00797442
0.00728222
0.00660349
0.0060013
0.00550933
0.00512196
0.00480965
0.0045552
0.00435762
0.00422441
0.00416318
0.00412713
0.00381356
0.00339334
0.00303905
0.00289425
0.00310663
0.00378593
0.00475565
0.00186326
0.00364855
0.00430613
0.00474928
0.00486014
0.00511133
0.00566566
0.00654146
0.00767852
0.00892802
0.0100847
0.0109312
0.0112863
0.0110975
0.0104978
0.00980828
0.00938155
0.00908361
0.00872289
0.00814741
0.00738523
0.00655289
0.0057675
0.00510977
0.00460465
0.00422965
0.00394383
0.00371344
0.00351916
0.00334964
0.00319594
0.00305057
0.00291726
0.00281249
0.00274458
0.00273614
0.00277171
0.00276713
0.00264819
0.00245919
0.00171295
0.00174161
0.00438835
0.0078986
0.0101735
0.0116719
0.0125895
0.012975
0.0129118
0.0124927
0.0118183
0.0108487
0.00984477
0.00906177
0.00848856
0.00788977
0.00716148
0.00634516
0.00552695
0.0047864
0.00419542
0.00376296
0.00345503
0.00323124
0.00306151
0.00292828
0.00282321
0.00274363
0.00269099
0.00267085
0.00268092
0.00270737
0.00274636
0.00278468
0.00278558
0.00269394
0.00249121
0.00219084
0.00138061
0.00262098
0.00801603
0.0110104
0.0117815
0.0120193
0.0118515
0.0113084
0.0105305
0.00965077
0.00878957
0.00797159
0.00727035
0.0066713
0.00606265
0.00540749
0.0047598
0.00417363
0.00368002
0.00328837
0.00298909
0.00277388
0.00262305
0.00252163
0.00246081
0.00243514
0.00243958
0.00246736
0.0025119
0.00258326
0.00267544
0.00278368
0.00289888
0.00300151
0.00307475
0.00306136
0.00306273
0.00276296
0.0013978
0.00231786
0.00245893
0.00256036
0.00273993
0.00262539
0.00252234
0.0024395
0.00232073
0.00216074
0.00196882
0.00175483
0.0015371
0.0013412
0.00118323
0.00106395
0.000975905
0.000910938
0.000863267
0.000829712
0.000808637
0.000798835
0.000798301
0.000804569
0.000816689
0.000834102
0.000856573
0.000884132
0.000917121
0.000956357
0.00100302
0.0010563
0.00111678
0.00118488
0.00126116
0.00134555
0.00145804
0.00148939
0.00145223
0.00135467
0.00124938
)
;

boundaryField
{
    floor
    {
        type            compressible::alphatWallFunction;
        Prt             0.85;
        value           nonuniform List<scalar> 
29
(
0.000202643
8.41434e-05
0.000102635
0.000115707
0.000115401
0.000111536
0.000106302
9.95523e-05
9.27758e-05
8.65694e-05
8.10142e-05
7.60569e-05
7.16211e-05
6.76531e-05
6.40668e-05
6.07424e-05
5.75219e-05
5.41788e-05
5.21111e-05
4.69745e-05
4.69739e-05
6.52741e-05
7.74709e-05
8.63543e-05
0.000202641
8.41424e-05
8.98696e-05
0.000174929
0.000248651
)
;
    }
    ceiling
    {
        type            compressible::alphatWallFunction;
        Prt             0.85;
        value           nonuniform List<scalar> 
43
(
0.000318003
0.00033603
0.000348925
0.00037178
0.000357378
0.000344336
0.000333806
0.000318631
0.000298049
0.000273137
0.000245043
0.000216065
0.0001896
0.000167939
0.000151366
0.000138994
0.000129781
0.000122973
0.000118153
0.000115115
0.000113698
0.000113621
0.000114527
0.000116277
0.000118785
0.000122013
0.000125958
0.000130662
0.000136231
0.000142818
0.000150297
0.000158733
0.000168171
0.000178668
0.000190197
0.000205441
0.000209665
0.000204658
0.00019144
0.000177057
0.000484734
0.000564448
0.000356366
)
;
    }
    sWall
    {
        type            compressible::alphatWallFunction;
        Prt             0.85;
        value           uniform 0.00031673;
    }
    nWall
    {
        type            compressible::alphatWallFunction;
        Prt             0.85;
        value           nonuniform List<scalar> 6(0.00014198 0.000148895 0.000171398 0.000194618 0.000196946 0.00017671);
    }
    sideWalls
    {
        type            empty;
    }
    glass1
    {
        type            compressible::alphatWallFunction;
        Prt             0.85;
        value           nonuniform List<scalar> 9(0.000182191 0.0002452 0.000295896 0.000343317 0.000390695 0.000440038 0.000483354 0.000490603 0.000477442);
    }
    glass2
    {
        type            compressible::alphatWallFunction;
        Prt             0.85;
        value           nonuniform List<scalar> 2(0.000257219 0.000237575);
    }
    sun
    {
        type            compressible::alphatWallFunction;
        Prt             0.85;
        value           nonuniform List<scalar> 
14
(
0.000186946
0.000204152
0.000207915
0.000217716
0.000226858
0.000235484
0.000244047
0.0002519
0.000257177
0.000259006
0.000256616
0.000249509
0.000237492
0.000221197
)
;
    }
    heatsource1
    {
        type            compressible::alphatWallFunction;
        Prt             0.85;
        value           nonuniform List<scalar> 3(0.000106247 0.000127172 0.000142356);
    }
    heatsource2
    {
        type            compressible::alphatWallFunction;
        Prt             0.85;
        value           nonuniform List<scalar> 4(0.000208146 0.000121479 0.000121477 0.000212706);
    }
    Table_master
    {
        type            compressible::alphatWallFunction;
        Prt             0.85;
        value           nonuniform List<scalar> 9(0.000141991 0.000125372 0.000111824 0.000100757 9.16426e-05 8.4065e-05 7.77231e-05 7.24269e-05 6.81136e-05);
    }
    Table_slave
    {
        type            compressible::alphatWallFunction;
        Prt             0.85;
        value           nonuniform List<scalar> 9(0.000159349 0.000145355 0.000135285 0.00012751 0.00012077 0.000114545 0.00010851 0.000102133 9.46829e-05);
    }
    inlet
    {
        type            fixedValue;
        value           uniform 1.94e-05;
    }
    outlet
    {
        type            zeroGradient;
    }
}


// ************************************************************************* //
