/*--------------------------------*- C++ -*----------------------------------*\
  =========                 |
  \\      /  F ield         | OpenFOAM: The Open Source CFD Toolbox
   \\    /   O peration     | Website:  https://openfoam.org
    \\  /    A nd           | Version:  6
     \\/     M anipulation  |
\*---------------------------------------------------------------------------*/
FoamFile
{
    version     2.0;
    format      ascii;
    class       volScalarField;
    location    "1900";
    object      nut;
}
// * * * * * * * * * * * * * * * * * * * * * * * * * * * * * * * * * * * * * //

dimensions      [0 2 -1 0 0 0 0];

internalField   nonuniform List<scalar> 
459
(
0.00113663
0.00124458
0.00126849
0.00133111
0.00138982
0.00144547
0.00150094
0.001552
0.00158639
0.00159829
0.00158262
0.00153625
0.00145823
0.00135319
0.00123473
0.000514127
0.000621406
0.000698657
0.000696841
0.000673902
0.000642979
0.000603364
0.000563903
0.000528054
0.000496216
0.000468017
0.00044296
0.000420695
0.000400698
0.000382274
0.000364531
0.000346229
0.000334974
0.00030723
0.00154756
0.00386956
0.00373743
0.00436204
0.00497832
0.00558625
0.0061035
0.00651061
0.00687113
0.00715662
0.00733014
0.00735359
0.00716873
0.00662547
0.0051193
0.00126854
0.000731871
0.000547118
0.00114919
0.0016021
0.00193358
0.00211079
0.00210165
0.00167588
0.00144185
0.00127542
0.00114802
0.00104689
0.000964607
0.000893379
0.00082716
0.000763054
0.000706182
0.000655894
0.000784181
0.000407461
0.00188696
0.00529144
0.0046633
0.00583535
0.00643211
0.00687926
0.00722797
0.00752391
0.00783682
0.00815267
0.00843119
0.00862638
0.00868438
0.00851289
0.00785508
0.0059471
0.00129769
0.00106036
0.00155043
0.00200766
0.00242469
0.00270862
0.00263093
0.000856142
0.000755572
0.000674736
0.000609547
0.000556484
0.000512831
0.000476646
0.000446685
0.000422469
0.000455987
0.000526672
0.000891142
0.00047611
0.00221034
0.00673422
0.00471528
0.00618025
0.00669626
0.00689343
0.00704162
0.00722674
0.00749796
0.0078391
0.00819693
0.00851597
0.00873504
0.00877682
0.00857943
0.00783903
0.00536365
0.00153081
0.00191374
0.00249183
0.00305934
0.00350873
0.00377467
0.00351818
0.00096283
0.000876853
0.000815576
0.000768631
0.000728206
0.000691099
0.000655348
0.000617819
0.000574315
0.000537903
0.000553618
0.00104716
0.000526921
0.00253838
0.00856546
0.00522328
0.00600472
0.00664959
0.00671989
0.00670898
0.00684912
0.00709673
0.00745846
0.00786368
0.00823827
0.00849234
0.00857008
0.00846373
0.00813658
0.00739105
0.00612944
0.00569781
0.00556059
0.00551002
0.00546345
0.00537567
0.00513113
0.00429651
0.00389882
0.00366661
0.0034858
0.00329608
0.00302374
0.00266472
0.00223842
0.00177311
0.00131256
0.000970559
0.00102425
0.000691101
0.000642132
0.000766921
0.000858974
0.00288463
0.0105504
0.00715666
0.00612962
0.0065946
0.00671993
0.00667718
0.00676859
0.0069626
0.00729325
0.00772336
0.0081408
0.00841701
0.00847148
0.008313
0.00802603
0.0077034
0.00739258
0.0072088
0.00703946
0.00682599
0.00657906
0.00631116
0.00600453
0.00560186
0.00526043
0.00496989
0.00469966
0.00442975
0.00413486
0.00375843
0.003287
0.00272463
0.00211103
0.00157719
0.00117549
0.000924272
0.000816471
0.00118211
0.000901214
0.00319222
0.0119001
0.00986141
0.00789877
0.00756035
0.00730141
0.00701727
0.00690137
0.00702123
0.00737088
0.00785863
0.00832449
0.00860419
0.00860525
0.00835858
0.00802293
0.00780356
0.00776158
0.00773854
0.0075716
0.00725646
0.00685974
0.00642986
0.00599243
0.00556859
0.0052025
0.00488477
0.00459877
0.00433961
0.00411096
0.0039091
0.00358765
0.0031332
0.00258886
0.00207999
0.00162463
0.00132801
0.0012724
0.00133772
0.00104046
0.00324524
0.0103913
0.0093818
0.00868415
0.00800918
0.00733057
0.00690706
0.00684881
0.00714475
0.00769488
0.00832581
0.00882851
0.00903447
0.00888881
0.00848981
0.00808629
0.00792041
0.00792947
0.00777822
0.00738967
0.00685343
0.00625894
0.00567585
0.00515843
0.00473566
0.00440275
0.00413431
0.00391557
0.00374568
0.0036311
0.00357834
0.00354717
0.00327748
0.00291613
0.00261147
0.00248685
0.00266928
0.00325316
0.00408678
0.001602
0.00315345
0.00371815
0.00409679
0.00418813
0.00439932
0.00487
0.00561653
0.00658765
0.00765641
0.00864754
0.0093748
0.00968237
0.00952394
0.00901271
0.00842391
0.00805986
0.00780541
0.00749646
0.00700259
0.00634799
0.00563287
0.00495796
0.00439267
0.0039585
0.00363615
0.00339045
0.00319237
0.00302533
0.00287956
0.0027474
0.00262241
0.00250781
0.00241776
0.00235945
0.00235234
0.00238315
0.00237955
0.00227757
0.0021152
0.00147365
0.00145107
0.00368029
0.00666787
0.00863035
0.00993661
0.0107463
0.0110978
0.0110605
0.0107135
0.0101439
0.00931653
0.00845735
0.00778671
0.00729546
0.00678164
0.00615617
0.00545477
0.00475159
0.00411506
0.00360705
0.00323528
0.00297055
0.00277815
0.00263222
0.00251767
0.00242734
0.00235892
0.00231367
0.00229636
0.00230504
0.00232783
0.00236144
0.00239452
0.00239549
0.00231691
0.00214276
0.00188453
0.00118767
0.00219263
0.00676161
0.00935549
0.0100477
0.0102743
0.0101475
0.00969394
0.00903518
0.00828593
0.00755025
0.00684984
0.00624865
0.00573465
0.00521198
0.00464907
0.00409241
0.00358854
0.0031642
0.00282748
0.00257018
0.00238513
0.00225545
0.00216825
0.00211596
0.00209389
0.00209771
0.0021216
0.00215991
0.00222129
0.00230057
0.00239368
0.0024928
0.00258116
0.00264429
0.00263295
0.00263433
0.00237648
0.0012024
0.00196347
0.00208244
0.0021683
0.00233836
0.00224751
0.00216215
0.00209283
0.00199217
0.00185572
0.00169153
0.00150812
0.00132128
0.00115306
0.00101735
0.000914856
0.000839186
0.000783344
0.000742366
0.000713518
0.000695399
0.000686972
0.000686513
0.000691903
0.000702324
0.000717298
0.00073662
0.000760318
0.000788686
0.000822425
0.000862551
0.000908372
0.000960379
0.00101895
0.00108456
0.00115715
0.00125394
0.00128095
0.00124903
0.00116513
0.00107472
)
;

boundaryField
{
    floor
    {
        type            nutkWallFunction;
        Cmu             0.09;
        kappa           0.41;
        E               9.8;
        value           nonuniform List<scalar> 
29
(
0.000147988
6.15201e-05
7.50195e-05
8.45629e-05
8.43401e-05
8.15192e-05
7.76983e-05
7.27705e-05
6.78227e-05
6.32909e-05
5.92342e-05
5.5614e-05
5.23745e-05
4.94763e-05
4.68569e-05
4.44286e-05
4.2076e-05
3.96337e-05
3.81234e-05
3.43715e-05
3.43714e-05
4.77439e-05
5.66551e-05
6.31463e-05
0.000147988
6.15201e-05
6.57051e-05
0.000127794
0.000181576
)
;
    }
    ceiling
    {
        type            nutkWallFunction;
        Cmu             0.09;
        kappa           0.41;
        E               9.8;
        value           nonuniform List<scalar> 
43
(
0.000229224
0.000242148
0.000251428
0.000269839
0.000260142
0.000250963
0.000243475
0.000232542
0.000217621
0.000199504
0.000179035
0.000157896
0.000138577
0.000122758
0.000110651
0.000101613
9.48812e-05
8.99056e-05
8.63835e-05
8.41627e-05
8.31273e-05
8.30709e-05
8.37333e-05
8.50123e-05
8.68459e-05
8.92054e-05
9.20892e-05
9.55275e-05
9.95979e-05
0.000104413
0.000109881
0.000116047
0.000122947
0.000130622
0.000139052
0.000150201
0.000153294
0.000149637
0.000139975
0.000129475
0.000356057
0.000414229
0.000253846
)
;
    }
    sWall
    {
        type            nutkWallFunction;
        Cmu             0.09;
        kappa           0.41;
        E               9.8;
        value           uniform 0.000229289;
    }
    nWall
    {
        type            nutkWallFunction;
        Cmu             0.09;
        kappa           0.41;
        E               9.8;
        value           nonuniform List<scalar> 6(0.000103987 0.000109031 0.000125473 0.00014259 0.000144288 0.000129483);
    }
    sideWalls
    {
        type            empty;
    }
    glass1
    {
        type            nutkWallFunction;
        Cmu             0.09;
        kappa           0.41;
        E               9.8;
        value           nonuniform List<scalar> 9(0.000136802 0.000183711 0.000221394 0.000256614 0.000291782 0.000328387 0.000360523 0.000366042 0.000356521);
    }
    glass2
    {
        type            nutkWallFunction;
        Cmu             0.09;
        kappa           0.41;
        E               9.8;
        value           nonuniform List<scalar> 2(0.000189643 0.000175245);
    }
    sun
    {
        type            nutkWallFunction;
        Cmu             0.09;
        kappa           0.41;
        E               9.8;
        value           nonuniform List<scalar> 
14
(
0.000136675
0.00014912
0.000151861
0.000159012
0.000165682
0.000171976
0.000178223
0.000183951
0.000187797
0.000189126
0.000187375
0.000182185
0.000173414
0.000161523
)
;
    }
    heatsource1
    {
        type            nutkWallFunction;
        Cmu             0.09;
        kappa           0.41;
        E               9.8;
        value           nonuniform List<scalar> 3(7.75949e-05 9.28911e-05 0.000103984);
    }
    heatsource2
    {
        type            nutkWallFunction;
        Cmu             0.09;
        kappa           0.41;
        E               9.8;
        value           nonuniform List<scalar> 4(0.00015186 8.86276e-05 8.86276e-05 0.000155193);
    }
    Table_master
    {
        type            nutkWallFunction;
        Cmu             0.09;
        kappa           0.41;
        E               9.8;
        value           nonuniform List<scalar> 9(0.000103644 9.15131e-05 8.1624e-05 7.35456e-05 6.68928e-05 6.13616e-05 5.67325e-05 5.28666e-05 4.97183e-05);
    }
    Table_slave
    {
        type            nutkWallFunction;
        Cmu             0.09;
        kappa           0.41;
        E               9.8;
        value           nonuniform List<scalar> 9(0.000116333 0.000106121 9.87725e-05 9.30986e-05 8.81799e-05 8.36362e-05 7.92311e-05 7.45755e-05 6.91356e-05);
    }
    inlet
    {
        type            calculated;
        value           uniform 0.000100623;
    }
    outlet
    {
        type            calculated;
        value           nonuniform List<scalar> 2(0.00196347 0.00208244);
    }
}


// ************************************************************************* //
