// -*- C++ -*-
// File generated by PyFoam - sorry for the ugliness

FoamFile
{
 version 2.0;
 format ascii;
 class volScalarField;
 location "1900";
 object T;
}

dimensions [ 0 0 0 1 0 0 0 ];

internalField nonuniform List<scalar> 459
(
  302.668
  302.387
  302.372
  302.368
  302.364
  302.36
  302.355
  302.349
  302.34
  302.33
  302.32
  302.312
  302.308
  302.308
  302.317
  302.448
  302.421
  302.412
  302.416
  302.421
  302.426
  302.431
  302.436
  302.441
  302.445
  302.45
  302.455
  302.459
  302.464
  302.468
  302.473
  302.478
  302.485
  302.51
  302.853
  302.428
  302.4
  302.401
  302.403
  302.402
  302.399
  302.391
  302.374
  302.352
  302.328
  302.308
  302.296
  302.292
  302.293
  302.292
  302.287
  302.45
  302.403
  302.396
  302.4
  302.406
  302.412
  302.415
  302.417
  302.418
  302.42
  302.421
  302.422
  302.424
  302.425
  302.428
  302.433
  302.44
  302.451
  302.491
  303.048
  302.481
  302.434
  302.442
  302.455
  302.463
  302.466
  302.456
  302.429
  302.389
  302.347
  302.313
  302.292
  302.286
  302.288
  302.292
  302.294
  302.38
  302.377
  302.386
  302.4
  302.414
  302.424
  302.424
  302.423
  302.423
  302.422
  302.422
  302.422
  302.422
  302.422
  302.422
  302.426
  302.431
  302.44
  302.483
  303.245
  302.548
  302.472
  302.486
  302.512
  302.537
  302.552
  302.542
  302.498
  302.432
  302.367
  302.316
  302.287
  302.28
  302.285
  302.295
  302.304
  302.321
  302.341
  302.368
  302.396
  302.421
  302.443
  302.46
  302.473
  302.485
  302.495
  302.504
  302.511
  302.517
  302.521
  302.525
  302.525
  302.492
  302.464
  302.451
  302.485
  303.437
  302.635
  302.52
  302.528
  302.567
  302.611
  302.644
  302.626
  302.559
  302.462
  302.375
  302.312
  302.278
  302.272
  302.283
  302.302
  302.323
  302.348
  302.376
  302.408
  302.44
  302.469
  302.494
  302.514
  302.531
  302.545
  302.557
  302.565
  302.571
  302.572
  302.57
  302.565
  302.556
  302.531
  302.495
  302.468
  302.482
  302.58
  302.625
  302.631
  303.61
  302.749
  302.606
  302.593
  302.633
  302.692
  302.72
  302.675
  302.581
  302.466
  302.364
  302.293
  302.26
  302.26
  302.283
  302.317
  302.353
  302.389
  302.426
  302.464
  302.499
  302.529
  302.553
  302.572
  302.588
  302.6
  302.609
  302.615
  302.617
  302.615
  302.607
  302.597
  302.582
  302.558
  302.524
  302.491
  302.486
  302.526
  302.546
  302.587
  303.772
  302.929
  302.791
  302.765
  302.782
  302.818
  302.782
  302.682
  302.546
  302.411
  302.305
  302.243
  302.227
  302.248
  302.293
  302.348
  302.401
  302.45
  302.494
  302.533
  302.566
  302.593
  302.613
  302.629
  302.64
  302.649
  302.654
  302.656
  302.655
  302.649
  302.638
  302.623
  302.605
  302.582
  302.552
  302.519
  302.504
  302.516
  302.529
  302.562
  304.005
  303.379
  303.23
  303.148
  303.081
  302.955
  302.776
  302.577
  302.394
  302.256
  302.178
  302.16
  302.19
  302.251
  302.33
  302.41
  302.477
  302.532
  302.574
  302.606
  302.632
  302.652
  302.666
  302.676
  302.683
  302.687
  302.689
  302.687
  302.683
  302.676
  302.666
  302.649
  302.633
  302.612
  302.59
  302.566
  302.56
  302.579
  302.606
  302.758
  304.341
  304.044
  303.747
  303.437
  303.074
  302.674
  302.336
  302.099
  301.972
  301.943
  301.989
  302.084
  302.196
  302.311
  302.425
  302.517
  302.576
  302.616
  302.647
  302.67
  302.687
  302.699
  302.708
  302.713
  302.716
  302.716
  302.715
  302.712
  302.709
  302.705
  302.702
  302.702
  302.705
  302.714
  302.732
  302.762
  302.803
  302.844
  302.87
  302.933
  293.376
  295.303
  297.251
  298.707
  299.766
  300.563
  301.172
  301.629
  301.969
  302.229
  302.386
  302.493
  302.571
  302.625
  302.662
  302.687
  302.706
  302.719
  302.729
  302.735
  302.739
  302.741
  302.742
  302.743
  302.743
  302.743
  302.743
  302.744
  302.745
  302.748
  302.754
  302.764
  302.782
  302.807
  302.837
  302.865
  302.886
  302.908
  294.564
  297.007
  299.185
  300.289
  300.99
  301.483
  301.839
  302.109
  302.313
  302.462
  302.561
  302.627
  302.673
  302.703
  302.724
  302.738
  302.748
  302.755
  302.759
  302.761
  302.763
  302.764
  302.765
  302.765
  302.766
  302.767
  302.768
  302.769
  302.77
  302.773
  302.777
  302.785
  302.797
  302.814
  302.835
  302.858
  302.856
  302.889
  298.265
  298.19
  298.184
  300.496
  301.422
  301.821
  302.066
  302.252
  302.397
  302.511
  302.599
  302.663
  302.708
  302.739
  302.76
  302.774
  302.783
  302.789
  302.792
  302.794
  302.795
  302.795
  302.795
  302.795
  302.794
  302.793
  302.793
  302.792
  302.791
  302.791
  302.791
  302.791
  302.793
  302.796
  302.801
  302.815
  302.826
  302.834
  302.837
  302.877
)
;

boundaryField
{
  floor
  {
    type wallHeatTransfer;
    Tinf uniform 305.2;
    alphaWall uniform 0.24;
    value nonuniform List<scalar> 29
(
  302.591
  302.941
  302.859
  302.817
  302.82
  302.834
  302.853
  302.876
  302.901
  302.927
  302.951
  302.975
  302.998
  303.02
  303.041
  303.062
  303.083
  303.107
  303.125
  303.177
  303.177
  303.056
  302.996
  302.964
  302.591
  302.941
  302.923
  302.681
  302.552
)
;
  }
  ceiling
  {
    type wallHeatTransfer;
    Tinf uniform 303.2;
    alphaWall uniform 0.24;
    value nonuniform List<scalar> 43
(
  298.588
  298.501
  298.486
  300.65
  301.527
  301.905
  302.137
  302.313
  302.453
  302.562
  302.648
  302.712
  302.758
  302.79
  302.812
  302.828
  302.839
  302.846
  302.851
  302.853
  302.855
  302.855
  302.854
  302.853
  302.852
  302.85
  302.848
  302.846
  302.844
  302.842
  302.84
  302.838
  302.838
  302.839
  302.841
  302.851
  302.86
  302.868
  302.874
  302.911
  304.29
  304.011
  295.074
)
;
  }
  sWall
  {
    type wallHeatTransfer;
    Tinf uniform 315.2;
    alphaWall uniform 0.36;
    value uniform 299.876;
  }
  nWall
  {
    type wallHeatTransfer;
    Tinf uniform 307.2;
    alphaWall uniform 0.36;
    value nonuniform List<scalar> 6
(
  303.439
  303.375
  303.279
  303.511
  303.489
  303.53
)
;
  }
  sideWalls
  {
    type empty;
  }
  glass1
  {
    type wallHeatTransfer;
    Tinf uniform 315.2;
    alphaWall uniform 4.3;
    value nonuniform List<scalar> 9
(
  311.115
  310.428
  310
  309.679
  309.413
  309.174
  309.005
  309.092
  309.345
)
;
  }
  glass2
  {
    type wallHeatTransfer;
    Tinf uniform 307.2;
    alphaWall uniform 4.3;
    value nonuniform List<scalar> 2
(
  305.437
  305.58
)
;
  }
  sun
  {
    type wallHeatTransfer;
    Tinf uniform 305.2;
    alphaWall uniform 0.24;
    value nonuniform List<scalar> 14
(
  302.924
  302.653
  302.636
  302.622
  302.61
  302.599
  302.587
  302.576
  302.564
  302.553
  302.545
  302.543
  302.549
  302.565
)
;
  }
  heatsource1
  {
    type fixedGradient;
    gradient uniform 0;
  }
  heatsource2
  {
    type fixedGradient;
    gradient uniform 0;
  }
  Table_master
  {
    type zeroGradient;
  }
  Table_slave
  {
    type zeroGradient;
  }
  inlet
  {
    type fixedValue;
    value uniform 290.15;
  }
  outlet
  {
    type zeroGradient;
  }
} 	// ************************************************************************* //

