/*--------------------------------*- C++ -*----------------------------------*\
  =========                 |
  \\      /  F ield         | OpenFOAM: The Open Source CFD Toolbox
   \\    /   O peration     | Website:  https://openfoam.org
    \\  /    A nd           | Version:  6
     \\/     M anipulation  |
\*---------------------------------------------------------------------------*/
FoamFile
{
    version     2.0;
    format      ascii;
    class       volScalarField;
    location    "900";
    object      nut;
}
// * * * * * * * * * * * * * * * * * * * * * * * * * * * * * * * * * * * * * //

dimensions      [0 2 -1 0 0 0 0];

internalField   nonuniform List<scalar> 
459
(
0.00112268
0.00122788
0.00124943
0.00131036
0.00136729
0.00142084
0.00147359
0.00152431
0.00155975
0.00157441
0.00156325
0.00152304
0.00145348
0.00136047
0.00125876
0.000505303
0.000614969
0.000686268
0.000677664
0.00065224
0.000620492
0.000582274
0.000544821
0.000510843
0.000480607
0.00045376
0.000429841
0.000408606
0.000389461
0.000371763
0.000354664
0.000336967
0.000326925
0.0003006
0.00153522
0.00381963
0.00368282
0.00429957
0.00490258
0.00550171
0.00602491
0.00642399
0.00677917
0.00706323
0.00723774
0.00725827
0.00705548
0.00645559
0.00482521
0.00128494
0.000748845
0.000547772
0.00111803
0.00153481
0.00183183
0.00198348
0.00197247
0.00160117
0.00138812
0.00123452
0.00111584
0.00102087
0.000943091
0.00087393
0.000809641
0.000747815
0.000693468
0.000644197
0.000771158
0.000404086
0.00187673
0.00522955
0.00459175
0.00579604
0.00640642
0.00686128
0.00721483
0.00749731
0.00779334
0.00809295
0.00836024
0.00854583
0.00859247
0.00841728
0.00779472
0.00594821
0.0012807
0.00108672
0.00154842
0.0019616
0.0023256
0.00256627
0.00248599
0.000826868
0.000731162
0.000654385
0.000592493
0.000542103
0.000500628
0.00046623
0.000437703
0.000414566
0.0004474
0.000515506
0.000871441
0.000473849
0.00220278
0.00668071
0.00463867
0.00616023
0.00672573
0.00693908
0.00708117
0.00723775
0.00748035
0.00779249
0.00813353
0.00844244
0.00865755
0.00871497
0.00853605
0.00785227
0.00567201
0.00152981
0.00192125
0.00248058
0.00299508
0.00338127
0.00360023
0.00334774
0.0009278
0.000846511
0.000789207
0.000745741
0.000708392
0.00067351
0.000639938
0.000604591
0.000563362
0.000528605
0.000542377
0.00102218
0.000524951
0.00253355
0.00852214
0.00515194
0.00596279
0.00669239
0.00679387
0.0067608
0.00685768
0.00707613
0.00740025
0.00778942
0.00816064
0.00842829
0.00852556
0.00843234
0.00810957
0.00738003
0.00604469
0.00556763
0.00537782
0.00527534
0.0051927
0.00509307
0.00486637
0.00409634
0.00373778
0.003531
0.00336863
0.00319508
0.0029446
0.00260423
0.00219482
0.00174495
0.00129539
0.000955851
0.000998057
0.000685798
0.000642748
0.000767132
0.000858557
0.00288214
0.0105104
0.00708545
0.00604823
0.0065549
0.00681494
0.00668714
0.00676073
0.00692965
0.00722583
0.00762996
0.00804596
0.00834745
0.00843841
0.00830064
0.00799403
0.00760849
0.00720335
0.00693395
0.00670086
0.00645037
0.00619389
0.00593817
0.00565829
0.00529474
0.00498867
0.00472756
0.00448369
0.00424019
0.00397819
0.00363587
0.00319734
0.00266444
0.0020733
0.00155027
0.00114422
0.000908247
0.000807241
0.00117285
0.000900012
0.00319221
0.0118657
0.00979114
0.0078092
0.00745304
0.00729154
0.00703172
0.00689937
0.00697729
0.00727872
0.00773528
0.00820505
0.00852375
0.00857722
0.00835688
0.00797933
0.0076409
0.00745565
0.00733605
0.00712298
0.00679373
0.00640232
0.00598978
0.00558227
0.00520199
0.00488263
0.00460818
0.00436148
0.00413804
0.00394173
0.00376952
0.00347986
0.0030519
0.00252933
0.00203491
0.00158413
0.00129744
0.00124527
0.00131427
0.00103478
0.00324601
0.0103972
0.00936566
0.00874291
0.00810867
0.00743396
0.00696578
0.0068377
0.00705866
0.00754929
0.00815713
0.00868554
0.00895444
0.00887577
0.00849372
0.00800192
0.00765806
0.00751613
0.00730999
0.00689442
0.00634975
0.00576888
0.00522525
0.00476884
0.00441358
0.00414098
0.00392242
0.0037446
0.00360803
0.00352001
0.00348834
0.00347508
0.00321335
0.00286026
0.0025597
0.00243594
0.00261889
0.00320576
0.00405071
0.0015992
0.00315381
0.00372076
0.00411237
0.00419776
0.00438213
0.00479941
0.00548014
0.00638973
0.00741768
0.00840264
0.00917021
0.00956559
0.00950698
0.00905656
0.00840713
0.00789683
0.00748951
0.00708118
0.00653414
0.00585595
0.00515539
0.00453703
0.00405263
0.00369879
0.00344158
0.00324408
0.0030812
0.00294017
0.00281378
0.00269606
0.0025819
0.00247374
0.00238721
0.0023315
0.00232718
0.00236156
0.00236245
0.00226488
0.00210532
0.001472
0.00147678
0.00365023
0.00650456
0.00841703
0.00971764
0.0105514
0.0109478
0.0109668
0.0106831
0.0101614
0.009419
0.00853582
0.00773516
0.00710929
0.00649342
0.00579964
0.00506766
0.00437565
0.003797
0.00337048
0.00307187
0.0028605
0.00270334
0.0025798
0.00247921
0.00239724
0.00233341
0.00229023
0.00227338
0.00228264
0.00230562
0.00233959
0.00237381
0.00237704
0.0023017
0.00213083
0.00187617
0.00118745
0.00218931
0.00655975
0.0092045
0.00992011
0.0101964
0.0101314
0.00973663
0.0091193
0.00838694
0.00763293
0.00691346
0.00625189
0.00565977
0.0050735
0.00446289
0.00388835
0.00339961
0.00301049
0.00270806
0.00248922
0.00233279
0.00222134
0.00214511
0.00209937
0.0020813
0.00208758
0.00211294
0.00214964
0.0022096
0.00228737
0.00237893
0.00247674
0.00256451
0.00262799
0.00261886
0.00262376
0.00236723
0.00120207
0.00196015
0.00207857
0.00216395
0.00233368
0.00224949
0.00216575
0.002101
0.00200654
0.00187665
0.00171878
0.00154045
0.00135467
0.00118073
0.00103558
0.000923863
0.000841402
0.000781863
0.000739916
0.000711846
0.000695363
0.000689061
0.000689307
0.000695004
0.000705465
0.000720338
0.000739486
0.00076296
0.000791049
0.000824432
0.000864398
0.000909989
0.000961729
0.00101996
0.00108514
0.00115726
0.00125336
0.00128077
0.00124939
0.00116578
0.00107571
)
;

boundaryField
{
    floor
    {
        type            nutkWallFunction;
        Cmu             0.09;
        kappa           0.41;
        E               9.8;
        value           nonuniform List<scalar> 
29
(
0.000150746
6.03949e-05
7.4218e-05
8.30412e-05
8.19825e-05
7.88448e-05
7.49056e-05
7.0131e-05
6.54148e-05
6.11016e-05
5.72334e-05
5.37733e-05
5.06689e-05
4.78946e-05
4.53775e-05
4.30365e-05
4.07611e-05
3.83912e-05
3.70391e-05
3.34685e-05
3.34684e-05
4.73011e-05
5.63642e-05
6.2896e-05
0.000150746
6.03949e-05
6.57875e-05
0.00013087
0.000181465
)
;
    }
    ceiling
    {
        type            nutkWallFunction;
        Cmu             0.09;
        kappa           0.41;
        E               9.8;
        value           nonuniform List<scalar> 
43
(
0.00022886
0.000241726
0.000250956
0.000269334
0.000260352
0.00025135
0.000244358
0.000234106
0.000219917
0.000202523
0.000182662
0.000161696
0.000141775
0.000124897
0.000111721
0.000101879
9.47018e-05
8.96072e-05
8.61789e-05
8.41583e-05
8.33842e-05
8.34145e-05
8.41141e-05
8.53973e-05
8.72177e-05
8.95548e-05
9.24102e-05
9.58132e-05
9.98393e-05
0.000104634
0.000110073
0.000116207
0.000123065
0.000130689
0.000139065
0.000150134
0.000153273
0.000149679
0.00014005
0.00012959
0.000356098
0.0004145
0.000253491
)
;
    }
    sWall
    {
        type            nutkWallFunction;
        Cmu             0.09;
        kappa           0.41;
        E               9.8;
        value           uniform 0.000228925;
    }
    nWall
    {
        type            nutkWallFunction;
        Cmu             0.09;
        kappa           0.41;
        E               9.8;
        value           nonuniform List<scalar> 6(0.000103937 0.000108888 0.000124808 0.000142564 0.00014425 0.000129598);
    }
    sideWalls
    {
        type            empty;
    }
    glass1
    {
        type            nutkWallFunction;
        Cmu             0.09;
        kappa           0.41;
        E               9.8;
        value           nonuniform List<scalar> 9(0.000135179 0.000182324 0.00022027 0.000255798 0.000291269 0.000328127 0.000360525 0.000366123 0.000356561);
    }
    glass2
    {
        type            nutkWallFunction;
        Cmu             0.09;
        kappa           0.41;
        E               9.8;
        value           nonuniform List<scalar> 2(0.000189331 0.000175059);
    }
    sun
    {
        type            nutkWallFunction;
        Cmu             0.09;
        kappa           0.41;
        E               9.8;
        value           nonuniform List<scalar> 
14
(
0.000135057
0.000147204
0.000149677
0.000156648
0.000163127
0.000169195
0.000175148
0.000180848
0.00018482
0.00018646
0.000185211
0.000180706
0.00017288
0.000162351
)
;
    }
    heatsource1
    {
        type            nutkWallFunction;
        Cmu             0.09;
        kappa           0.41;
        E               9.8;
        value           nonuniform List<scalar> 3(7.76713e-05 9.29166e-05 0.000103934);
    }
    heatsource2
    {
        type            nutkWallFunction;
        Cmu             0.09;
        kappa           0.41;
        E               9.8;
        value           nonuniform List<scalar> 4(0.000153737 9.06952e-05 9.06952e-05 0.000153253);
    }
    Table_master
    {
        type            nutkWallFunction;
        Cmu             0.09;
        kappa           0.41;
        E               9.8;
        value           nonuniform List<scalar> 9(0.000100131 8.85408e-05 7.91124e-05 7.14153e-05 6.50765e-05 5.98049e-05 5.53919e-05 5.17012e-05 4.86856e-05);
    }
    Table_slave
    {
        type            nutkWallFunction;
        Cmu             0.09;
        kappa           0.41;
        E               9.8;
        value           nonuniform List<scalar> 9(0.000112186 0.00010249 9.55904e-05 9.03173e-05 8.57572e-05 8.14724e-05 7.73233e-05 7.29265e-05 6.77582e-05);
    }
    inlet
    {
        type            calculated;
        value           uniform 0.000100623;
    }
    outlet
    {
        type            calculated;
        value           nonuniform List<scalar> 2(0.00196015 0.00207857);
    }
}


// ************************************************************************* //
