/*--------------------------------*- C++ -*----------------------------------*\
  =========                 |
  \\      /  F ield         | OpenFOAM: The Open Source CFD Toolbox
   \\    /   O peration     | Website:  https://openfoam.org
    \\  /    A nd           | Version:  6
     \\/     M anipulation  |
\*---------------------------------------------------------------------------*/
FoamFile
{
    version     2.0;
    format      ascii;
    class       surfaceScalarField;
    location    "900";
    object      phi;
}
// * * * * * * * * * * * * * * * * * * * * * * * * * * * * * * * * * * * * * //

dimensions      [1 0 -1 0 0 0 0];

internalField   nonuniform List<scalar> 
852
(
-0.00301934
0.00307918
-0.00407317
0.00105384
-0.00486418
0.000791023
-0.00547927
0.00061509
-0.00588787
0.000408606
-0.00606792
0.00018006
-0.00599921
-6.87018e-05
-0.00566718
-0.000332027
-0.00508717
-0.000579999
-0.00431168
-0.000775487
-0.00342031
-0.000891368
-0.00250114
-0.000919164
-0.00162955
-0.000871584
-0.000827027
-0.000802512
-0.000825015
-0.000749593
0.000753317
-0.000362612
-0.000386974
0.000313611
-0.000676216
0.000822006
-0.000508388
0.00115139
-0.000329381
0.00135131
-0.00019991
0.00145698
-0.000105657
0.001508
-5.10203e-05
0.0015355
-2.74881e-05
0.00155103
-1.5529e-05
0.0015583
-7.26232e-06
0.00155851
-2.02149e-07
0.00154972
8.80627e-06
0.00152316
2.65597e-05
0.00145562
6.7552e-05
0.00130852
0.000147102
0.00107124
0.00023729
0.000790169
0.000281082
0.00079524
-0.00214681
0.0053866
-0.00317261
0.00207964
-0.00398326
0.00160169
-0.00458519
0.00121702
-0.0049838
0.000807227
-0.00516687
0.000363135
-0.0051113
-0.000124261
-0.00480653
-0.0006368
-0.00427888
-0.00110764
-0.00358878
-0.00146558
-0.00281563
-0.00166451
-0.0020375
-0.00169729
-0.00132583
-0.00158325
-0.000771342
-0.001357
-0.000562746
-0.0010336
-6.66192e-05
-0.000496172
-6.66633e-05
0.000480454
0.000283424
0.000902634
-0.000809147
0.00114308
-0.000916659
0.00135715
-0.000722448
0.00151722
-0.00048945
0.00160843
-0.000291108
0.00162087
-0.000118092
0.00162384
-5.39783e-05
0.00162773
-3.13725e-05
0.001631
-1.8797e-05
0.0016331
-9.35614e-06
0.00163389
-9.76767e-07
0.0016324
1.02998e-05
0.00162487
3.4094e-05
0.00158076
0.000111677
0.00139355
0.000334315
0.00107492
0.000555926
0.000684118
0.000671896
0.00149212
-0.0014984
0.00713016
-0.00238426
0.00296551
-0.00309787
0.0023153
-0.00360608
0.00172523
-0.00394633
0.00114749
-0.00410266
0.000519466
-0.00403303
-0.00019388
-0.00372286
-0.000946964
-0.00321983
-0.00161066
-0.00259572
-0.00208968
-0.0019276
-0.00233263
-0.00127649
-0.00234839
-0.000692183
-0.00216755
-0.000226944
-0.00182223
8.58042e-05
-0.00134635
0.000293973
-0.000704335
0.000227316
0.00156988
-0.00127545
0.00179643
-0.00103569
0.0017603
-0.000880525
0.00175509
-0.000717237
0.00177824
-0.000512587
0.00178752
-0.000300388
0.00166959
0.00161577
0.00158456
0.00156592
0.00155673
0.00155591
0.00156637
0.00160063
0.00171247
0.00140286
0.000643931
0.00103326
0.000925532
0.000583034
0.00112213
0.00209438
-0.00104379
0.00849097
-0.00174741
0.00366913
-0.00221034
0.00277824
-0.00253159
0.00204648
-0.0027406
0.0013565
-0.00280727
0.000586147
-0.00266399
-0.00033715
-0.00231291
-0.00129804
-0.00183588
-0.00208769
-0.0013072
-0.00261835
-0.000788034
-0.00285179
-0.000310826
-0.0028256
0.000107411
-0.00258578
0.000460945
-0.00217576
0.000774406
-0.0016598
0.00115311
-0.00108303
0.0019501
-0.000569669
0.00251104
-0.000550818
0.00204866
-0.00081307
0.00191877
-0.000905788
0.0018181
-0.000779846
0.00173521
-0.000634339
0.00169928
-0.000476655
0.00170256
-0.000303661
0.00183909
-0.000136678
0.00193505
-9.61099e-05
0.00201575
-8.08403e-05
0.00207821
-6.26106e-05
0.00210487
-2.68035e-05
0.00207173
3.29891e-05
0.00195307
0.000118509
0.00171643
0.000236497
0.00130597
0.000410317
0.00115575
0.000794153
0.000827387
0.0012539
0.000324484
0.00162504
0.00244397
-0.00073051
0.00959945
-0.00126706
0.00420569
-0.00134785
0.00285904
-0.00138314
0.00208179
-0.00137723
0.00135059
-0.00124908
0.000458005
-0.000943393
-0.000642828
-0.000538667
-0.00170277
-0.000128104
-0.00249824
0.00023495
-0.0029814
0.000531411
-0.00314824
0.000761175
-0.00305535
0.000936945
-0.00276154
0.0010865
-0.00232531
0.00123891
-0.00181221
0.00144471
-0.00128882
0.00173816
-0.00086312
0.00187799
-0.000690639
0.00177866
-0.000713731
0.00159755
-0.000724675
0.0014551
-0.000637386
0.00134568
-0.00052492
0.00127982
-0.000410783
0.00127125
-0.000295091
0.00133869
-0.000204108
0.00141212
-0.000169534
0.00148893
-0.00015765
0.00156282
-0.000136494
0.00161985
-8.38216e-05
0.00163707
1.57681e-05
0.00159313
0.000162455
0.00147826
0.000351374
0.00129596
0.00059263
0.00113263
0.000957482
0.000951774
0.00143477
0.000540482
0.00203634
0.000392889
0.00259158
-0.00112565
0.00151834
-0.00158636
0.000460512
-0.00153217
-0.000637373
0.0106662
-0.00100577
0.00457408
-0.000554746
0.00240803
-0.00014098
0.00166803
0.000190492
0.00101913
0.000639996
8.50711e-06
0.00115708
-0.00115991
0.00155341
-0.00209909
0.00179942
-0.00274426
0.00190568
-0.00308765
0.00190732
-0.00314988
0.00183341
-0.00298143
0.00171587
-0.00264401
0.0015914
-0.00220083
0.00149178
-0.00171258
0.00144134
-0.00123837
0.00143366
-0.000855432
0.00138226
-0.000639239
0.00123851
-0.000569973
0.00104711
-0.000533274
0.000884516
-0.000474782
0.000767492
-0.000407889
0.0007015
-0.000344785
0.000694045
-0.00028763
0.000739844
-0.0002499
0.000811953
-0.000241638
0.00089815
-0.000243841
0.000992328
-0.000230666
0.00108676
-0.000178246
0.00116566
-6.31326e-05
0.00120931
0.000118815
0.00121786
0.000342835
0.00120116
0.000609329
0.00121087
0.000947777
0.00130071
0.00134495
0.00147744
0.00185961
0.00196233
0.00210669
0.00223954
0.00124114
0.00185106
0.000848998
0.00038379
-0.000672416
0.0118149
-0.000541879
0.00444355
0.000666356
0.0011998
0.00156059
0.000773807
0.00235644
0.000223275
0.00310959
-0.000744633
0.00361099
-0.0016613
0.00383318
-0.00232128
0.00380063
-0.00271169
0.0035655
-0.00285252
0.00319289
-0.00277726
0.00274468
-0.00253322
0.00227653
-0.00217585
0.00183624
-0.00176054
0.00145735
-0.00133369
0.0011544
-0.000935413
0.000924247
-0.000625274
0.000728493
-0.00044348
0.000531156
-0.000372631
0.000343615
-0.000345727
0.000193062
-0.000324224
8.98885e-05
-0.00030471
3.53181e-05
-0.000290209
2.97611e-05
-0.000282067
6.52658e-05
-0.000285399
0.000125589
-0.000301955
0.000201062
-0.000319309
0.000291034
-0.000320632
0.000400189
-0.000287394
0.000532943
-0.00019588
0.000668918
-1.71539e-05
0.000798019
0.000213741
0.000936973
0.000470381
0.00112736
0.000757398
0.0014231
0.00104921
0.00189909
0.00138362
0.00263444
0.00137136
0.00322908
0.00064651
0.00329473
0.000783355
0.00374813
0.00272925
0.00961905
0.00348601
0.0036868
0.00404383
0.000641987
0.00494037
-0.000122731
0.00583248
-0.000668823
0.00637131
-0.00128346
0.00648066
-0.00177063
0.00621657
-0.00205718
0.00565997
-0.00215509
0.00490381
-0.00209636
0.00404381
-0.00191725
0.00316462
-0.00165402
0.00233363
-0.00134486
0.00160002
-0.00102692
0.000991884
-0.00072555
0.000513267
-0.00045679
0.000164254
-0.000276256
-8.66452e-05
-0.000192575
-0.000279704
-0.000179566
-0.000432571
-0.000192854
-0.000548249
-0.00020854
-0.000628591
-0.000224362
-0.000676959
-0.000241834
-0.000696791
-0.00026223
-0.000694915
-0.000287268
-0.000681135
-0.000315729
-0.000660316
-0.000340121
-0.000630217
-0.000350725
-0.000580363
-0.000337242
-0.00048872
-0.000287517
-0.000322401
-0.000183467
-0.000114475
5.82157e-06
0.000116011
0.000239901
0.000400381
0.000473035
0.000745802
0.0007038
0.00120323
0.000926202
0.00168207
0.000892529
0.00181185
0.000516728
0.000971688
0.00162353
0.00501415
0.0102097
0.0138925
0.0129649
0.00156957
0.0123426
0.00049956
0.0116548
1.90244e-05
0.0106864
-0.00031509
0.00944634
-0.00053056
0.00803977
-0.00065061
0.006563
-0.000678324
0.00509911
-0.000632469
0.00372532
-0.000543454
0.00249886
-0.000427555
0.00145427
-0.000300271
0.000605406
-0.00017805
-4.65644e-05
-7.35739e-05
-0.0004967
-6.64955e-06
-0.00077605
3.09891e-06
-0.000955921
-1.26976e-05
-0.00108945
-4.60275e-05
-0.00119837
-8.39274e-05
-0.00128833
-0.000118582
-0.00136326
-0.00014942
-0.00142757
-0.000177515
-0.00148596
-0.000203842
-0.00154474
-0.00022848
-0.00161159
-0.000248865
-0.00169325
-0.000258457
-0.00179645
-0.00024752
-0.00192987
-0.000203812
-0.00210488
-0.000112506
-0.00233004
4.17044e-05
-0.0025888
0.00026458
-0.00292286
0.000573976
-0.00343836
0.000988537
-0.00423394
0.00149938
-0.00536381
0.00205608
-0.00693504
0.00246377
-0.00879402
0.00237572
-0.00815941
0.000988919
-0.00281804
0.00436309
0.00342893
0.0033875
0.00147513
0.00373872
-0.000332199
0.00373696
-0.000313339
0.0033373
-0.000130899
0.00270435
-1.76528e-05
0.00194456
8.14715e-05
0.00114503
0.000167062
0.000378143
0.000223438
-0.000293042
0.000243636
-0.000823008
0.0002297
-0.00120294
0.000201892
-0.00144836
0.000171851
-0.00159096
0.000135957
-0.00168216
9.43031e-05
-0.00175112
5.6267e-05
-0.0018182
2.10572e-05
-0.00188965
-1.24739e-05
-0.00196177
-4.64518e-05
-0.00203654
-7.46432e-05
-0.00211722
-9.6825e-05
-0.00220735
-0.000113714
-0.00231042
-0.0001254
-0.00242895
-0.000130329
-0.00256269
-0.00012471
-0.00270767
-0.000102533
-0.00285496
-5.65135e-05
-0.00298782
2.03567e-05
-0.00309661
0.000150501
-0.00318629
0.000354269
-0.00326891
0.000656595
-0.00335744
0.00107708
-0.00345686
0.00159881
-0.00350817
0.0021074
-0.00341907
0.00237467
-0.00298959
0.00194625
-0.00165994
-0.000340725
-0.00439277
-0.000820816
0.00433343
-0.000306229
0.000960539
-0.000919269
0.00028084
-0.00137704
0.00014443
-0.00168387
0.00017594
-0.00192466
0.000223143
-0.00211156
0.000268372
-0.00225351
0.000309026
-0.00235588
0.00032581
-0.00242183
0.00030959
-0.00245787
0.000265743
-0.00246708
0.000211108
-0.002453
0.000157782
-0.00242686
0.000109815
-0.0024032
7.06564e-05
-0.00238852
4.15914e-05
-0.00238674
1.92861e-05
-0.00239884
-3.68094e-07
-0.00242309
-2.21985e-05
-0.00245883
-3.89011e-05
-0.00250525
-5.03986e-05
-0.00256138
-5.75711e-05
-0.00262608
-6.06984e-05
-0.00269738
-5.90214e-05
-0.00277151
-5.05697e-05
-0.00284192
-3.21212e-05
-0.00289971
1.28514e-06
-0.00293025
5.09035e-05
-0.00290788
0.000128139
-0.00280566
0.00025205
-0.00258795
0.000438898
-0.00222648
0.000715617
-0.00172534
0.00109767
-0.00106954
0.00145161
-3.66004e-05
0.00134174
0.00128198
0.00062767
0.00159438
-0.000653121
-0.00270461
-0.00790536
-0.0111595
-0.00677002
-0.00578037
-0.00547946
-0.00531881
-0.00512907
-0.00489385
-0.0046146
-0.0042955
-0.00396006
-0.00364096
-0.00336555
-0.00314446
-0.00297632
-0.00285579
-0.00277408
-0.00272117
-0.00269036
-0.00267907
-0.00268957
-0.00271678
-0.00275557
-0.00280164
-0.002851
-0.00289888
-0.00293853
-0.00296
-0.00294836
-0.00288743
-0.00274963
-0.00248829
-0.00204052
-0.00131647
-0.000210823
0.00124809
0.00259682
0.00323147
0.00258561
)
;

boundaryField
{
    floor
    {
        type            calculated;
        value           nonuniform List<scalar> 
29
(
0
0
0
0
0
0
0
0
0
0
0
0
0
0
0
0
0
0
0
0
-5.0628e-06
-1.27544e-05
-1.92152e-05
-2.5104e-05
-2.00568e-06
-3.7168e-06
-1.05541e-05
-1.09988e-05
-1.0116e-05
)
;
    }
    ceiling
    {
        type            calculated;
        value           nonuniform List<scalar> 
43
(
-6.00912e-05
-5.78417e-05
-5.60387e-05
-2.91064e-05
-2.00585e-05
-1.62165e-05
-1.37943e-05
-1.2073e-05
-1.08684e-05
-1.00695e-05
-9.62474e-06
-9.50669e-06
-9.65999e-06
-9.97528e-06
-1.03467e-05
-1.07121e-05
-1.10407e-05
-1.13147e-05
-1.15215e-05
-1.16507e-05
-1.16952e-05
-1.16789e-05
-1.16091e-05
-1.14923e-05
-1.13336e-05
-1.11373e-05
-1.09068e-05
-1.06442e-05
-1.03495e-05
-1.00183e-05
-9.66034e-06
-9.27615e-06
-8.86663e-06
-8.43059e-06
-7.96436e-06
-7.2979e-06
-6.98583e-06
-6.97109e-06
-7.26343e-06
-6.95567e-06
6.51285e-06
4.05774e-06
-8.3693e-05
)
;
    }
    sWall
    {
        type            calculated;
        value           uniform -0.000280677;
    }
    nWall
    {
        type            calculated;
        value           nonuniform List<scalar> 6(-5.43834e-05 -6.4895e-05 -6.96077e-05 -8.52008e-05 -9.37703e-05 -0.000112033);
    }
    sideWalls
    {
        type            empty;
        value           nonuniform 0();
    }
    glass1
    {
        type            calculated;
        value           nonuniform List<scalar> 9(-5.98329e-05 -0.000160602 -0.000245159 -0.000317011 -0.000377963 -0.000429385 -0.000476312 -0.000533345 -0.000597193);
    }
    glass2
    {
        type            calculated;
        value           nonuniform List<scalar> 2(-0.000294325 -0.00032721);
    }
    sun
    {
        type            calculated;
        value           uniform 0;
    }
    heatsource1
    {
        type            calculated;
        value           nonuniform List<scalar> 3(2.05062e-07 2.04953e-07 2.04971e-07);
    }
    heatsource2
    {
        type            calculated;
        value           nonuniform List<scalar> 4(5.13873e-08 5.15164e-08 0 0);
    }
    Table_master
    {
        type            calculated;
        value           nonuniform List<scalar> 9(-1.53787e-07 -1.53871e-07 -1.53902e-07 -1.53922e-07 -1.53937e-07 -1.53947e-07 -1.5395e-07 -1.53944e-07 -1.53911e-07);
    }
    Table_slave
    {
        type            calculated;
        value           nonuniform List<scalar> 9(1.53651e-07 1.5367e-07 1.53645e-07 1.53625e-07 1.53618e-07 1.53622e-07 1.5364e-07 1.53689e-07 1.5378e-07);
    }
    inlet
    {
        type            calculated;
        value           uniform -0.00622246;
    }
    outlet
    {
        type            calculated;
        value           nonuniform List<scalar> 2(0.00824613 0.00331198);
    }
}


// ************************************************************************* //
