/*--------------------------------*- C++ -*----------------------------------*=========                 |
  \      /  F ield         | OpenFOAM: The Open Source CFD Toolbox
   \    /   O peration     | Website:  https://openfoam.org
    \  /    A nd           | Version:  6
     \/     M anipulation  |
\*---------------------------------------------------------------------------*/
FoamFile
{
    version     2.0;
    format      ascii;
    class       volScalarField;
    location    "900";
    object      PPD;
}
// * * * * * * * * * * * * * * * * * * * * * * * * * * * * * * * * * * * * * //

dimensions      [0 0 0 0 0 0 0];

internalField   nonuniform List<scalar> 
459
(
60.39962618405075
48.78192509524081
47.44587848228165
46.225705706931336
45.38969526147073
44.883456405461914
44.67716598963961
44.82247534064815
45.220315274282854
45.98812447438608
47.152917102347665
48.83474876011407
51.10350988638488
53.73243408961623
54.065803842004314
57.13347765999952
56.458477116646414
56.22465169755886
56.302602258261146
56.40652282225538
56.51042730391474
56.35658404211095
56.149594253327614
56.120136119019904
56.13257489450546
56.197623770086174
56.28558224407213
56.376787646687994
56.51677459708468
56.78579257299916
57.2546561509702
57.54843506399305
57.67803351666318
58.247791946646885
58.47379428436427
49.932080124095926
49.53171127540057
48.41108275114142
47.74180414320508
47.365599908853156
47.20460436151542
47.28439852289367
47.50607455545558
47.85634835474641
48.50387125215067
49.58705087807232
51.1638384397887
53.09120385226253
53.51928591356797
53.441216220090915
53.259061602000685
54.87401520655312
56.0427350285681
55.860776519292166
55.853602596267145
55.47006783375125
55.24478069558266
55.1361838030882
55.151847664299815
55.164793495556715
55.184672256490096
55.17092788189911
55.161091972962836
55.1593859943328
55.19363169727458
55.30612678361887
55.67434922956779
56.53640083032698
56.770113602616455
56.187097292032234
60.83604723388117
50.06165285338774
51.4356098669411
50.90526999835276
50.780142997359796
50.72798436815627
50.797860694156846
50.89327215575681
50.741105967338534
50.41359911829628
50.16579040412713
50.29406969414659
51.00793067473602
52.348360522867395
53.441216220090915
53.49326248550214
53.51928591356797
50.29150952348119
52.67623617304653
53.45941063770779
53.941947273195815
54.37800012608885
54.6824483249954
54.83952936237543
55.167069114120544
55.39485525286569
55.45363680275752
55.47022666622734
55.45948378803129
55.41869384889101
55.30508485850326
55.008922486796656
55.05810702400853
55.98090172118873
55.49848850343122
52.873737538139906
64.92061365560349
50.39808124917843
52.91607048446796
53.41195316170561
54.31725158508446
55.138328401517406
55.811116939418724
55.8512468297466
54.78397008407836
53.02336300443033
51.300416954467956
50.202565760948886
50.02621360198559
50.78221156338755
52.30518966005934
53.54530952445771
53.25873026843618
51.08547360174574
50.69300465032547
52.13256768183827
53.47337120692956
54.49698649143999
55.32347964783086
55.897139151368705
56.00860756984446
55.83509307961563
55.735510582746585
55.685883231813335
55.67455639430015
55.77308998622118
56.06512316230337
56.65745984381426
57.83215214912443
57.49473090585262
56.71396521986241
54.36405550223754
50.46235890887615
69.54999218128087
51.506367374701355
54.36390828494411
55.788013088457106
58.213058049511716
60.91682333947752
62.66352785378481
61.17676176835528
57.67456490633167
54.007505256452625
51.06327742817121
49.24325822301971
48.631321710734774
49.14237533874426
50.466026539070604
51.939745084864185
52.57548398308407
52.49461050968112
52.84087433345794
54.12859110094866
55.63871721122953
56.98309409016203
58.02072340879361
58.55821428857869
58.920025241715024
59.09168106073653
58.99675635413152
58.8814074060807
58.713416670024344
58.57179172543727
58.49408043735254
58.541102423592775
58.62006092466007
57.93807076156835
56.549214825076724
53.35426814592739
53.00517023452122
59.8227206508156
59.00184670968739
50.19482780752895
73.95433021232968
53.82701075829879
57.215025801429036
58.59712306848804
62.0202697163848
63.550654828469845
64.53870295490167
60.46802649654969
56.47851285281635
52.61317122447481
49.50887753757926
47.62444576895399
47.133887624023124
47.91209722528878
49.56421375331443
51.62606184834441
53.41894737857113
54.729548750090196
56.01663047971896
57.44472955248655
58.247791946646885
58.9458537858598
59.46197526026795
59.87421733197772
60.20870162436761
60.46569881863189
60.645435963701914
60.748081734529976
60.773736117117856
60.696764475398574
60.517066027115966
60.23441325012264
59.715193143704546
58.39204997624475
56.60325713825101
53.27111542395324
53.173585621986945
53.91879918708606
53.80763120965145
54.419187376671985
78.00326357867306
58.994107076534064
65.2652008237261
63.70998848756971
63.46880423651064
62.70083256006943
60.42674221671102
56.97129533123082
52.955774095060455
49.20026711090429
46.470463836789435
45.25920165750021
45.61780263546811
47.30539763934957
49.94491417312068
53.0685435697126
55.730782588613096
56.951825830766516
58.04070044180716
58.99750465049591
59.771214201307416
60.362931909402235
60.825036333814964
61.132593697658024
61.388562470401865
61.567556371341645
61.66976880196128
61.69531386918419
61.64422050769126
61.49086358313426
61.18381178842813
60.825036333814964
60.38862767096329
59.71099133406573
57.592171642252104
54.52134702969891
53.332700629539715
52.723205083974044
51.29665680723287
55.90620875679479
83.42114175595147
75.18541542598257
73.10306414322075
68.10994286285174
65.4024059382248
61.79150807057309
56.87467833882001
51.461058172069734
46.64138752286567
43.36717580248163
42.003362036613645
42.58321530684033
44.85701376163518
48.33577025216956
52.66043686699127
55.65277745007369
57.36693527174582
58.765011098803384
59.87421733197772
60.645435963701914
61.23501779822076
61.66976880196128
62.00159900897918
62.205520795579176
62.33285997239338
62.409221452660006
62.434668210068004
62.38377115335354
62.28193475390704
62.12907574085352
61.848515895623066
61.439719285032744
61.03012162179435
60.568422288467474
60.002915725205284
59.46197526026795
58.346706163691806
57.71746899876733
54.39957999522288
49.800211360290255
89.90774408709103
85.72928206423057
79.1938352372797
71.07373550178775
62.2662007857018
51.65412683912568
42.6404917976238
36.72114221944549
34.1773154225574
34.526313269761175
37.23525809584861
41.79540336617953
47.56357842546414
52.920814671834904
55.60077054547488
58.06659290669642
59.66817234662887
60.748081734529976
61.51643101127683
62.078095239934065
62.460111414740936
62.61163331412407
62.50505731200701
62.36596488160309
62.21885348388359
61.987823113390675
61.70408559625582
61.357181493100285
60.90861133340191
60.40696354828413
59.806500770361524
59.16388166787425
58.56299073464667
57.812719901600744
56.954833789779926
56.1942379702801
55.68802925020665
55.36824823922689
54.78900772969027
53.11492669999441
98.94727479171924
62.36080958501973
29.314527062403613
7.983555998396028
5.474705149985553
11.792856244013521
22.4878742787469
34.8135538074101
43.15783151964071
49.7272196284726
54.29994934263728
57.211309032175365
59.20447827709018
59.92848352913162
60.511281514256986
60.90994307336976
61.13794056349142
61.207043793834416
61.2002011136392
61.126964840865064
60.97686697122384
60.79013485109235
60.58311983260461
60.297908703881376
60.013051271342064
59.685334149292906
59.38289741453721
59.127201347066126
58.91348144859973
58.768271081917135
58.67645369611738
58.6457698912473
58.62373043080523
58.70412510798594
59.27357075653757
61.16407860766799
64.93981591111333
56.44349338586965
92.0710230543407
25.212973827221788
5.028824463146037
11.34934524025762
21.36484315496746
29.99449826207757
37.3328003658783
43.45433846868686
48.37848092945191
52.135231308749354
54.813546167052515
56.636911902880854
57.90799479470911
58.7879025943923
59.374192834096476
59.749979020410606
59.970020787059994
60.12697755483711
60.206757939693844
60.21558784621867
60.20336799840788
60.170609871627505
60.09181565315554
59.99526836214683
59.885938040490494
59.799437835692366
59.69716113389905
59.65873235122836
59.69077412014553
59.86982685879792
60.2688808472606
60.88234987537558
61.55098821781493
62.0922324684518
62.70039145449668
64.71721438734039
61.2529975514959
58.52735833244459
21.771117142271947
27.438248161549993
22.464672717546605
7.274944933605312
20.197398716717714
29.16689372064549
35.595039429631
40.9227086342219
45.39974347972226
49.16653017126406
52.21402224766397
54.5990773555744
56.33305990616665
57.51165119835998
58.23759992415688
58.61069262314703
58.781824131334595
58.80794695129272
58.788914948955494
58.752855823948074
58.7393589670516
58.72099642773745
58.723333324900224
58.743684735799924
58.78073953663918
58.83582846496848
58.915233221067176
59.03217994343696
59.20854295044098
59.47572833302295
59.86289738878176
60.51920224177713
61.678684885687
63.76141994452765
65.28467560768158
65.60894168372552
63.85944835082599
61.58227148232412
59.30919460098355
59.59778864010036
)
;

boundaryField
{
    ".*"
    {
        type            zeroGradient;
    }
}


// ************************************************************************* //
