/*--------------------------------*- C++ -*----------------------------------*\
  =========                 |
  \\      /  F ield         | OpenFOAM: The Open Source CFD Toolbox
   \\    /   O peration     | Website:  https://openfoam.org
    \\  /    A nd           | Version:  6
     \\/     M anipulation  |
\*---------------------------------------------------------------------------*/
FoamFile
{
    version     2.0;
    format      ascii;
    class       volScalarField;
    location    "400";
    object      alphat;
}
// * * * * * * * * * * * * * * * * * * * * * * * * * * * * * * * * * * * * * //

dimensions      [1 -1 -1 0 0 0 0];

internalField   nonuniform List<scalar> 
459
(
0.000856266
0.000888973
0.000865881
0.000895802
0.000922656
0.000945995
0.000966561
0.000985228
0.00100296
0.00102095
0.00103546
0.00104536
0.00105044
0.00105215
0.00105036
0.000798837
0.000762961
0.000719845
0.000692413
0.000671222
0.000644865
0.000606463
0.000569003
0.000532761
0.000497854
0.000464389
0.000432346
0.000401625
0.000372018
0.000343029
0.000313381
0.000284798
0.000348304
0.000361682
0.00134618
0.00210459
0.00171295
0.00204102
0.00218412
0.00233634
0.00248922
0.00263019
0.00274141
0.00279889
0.00281644
0.00276112
0.00259005
0.00224431
0.00168111
0.00109399
0.000994312
0.000973351
0.00194616
0.00251553
0.00286793
0.00295061
0.00273881
0.00212194
0.0017517
0.0014778
0.00126449
0.00109245
0.00095125
0.000834072
0.000736094
0.000656281
0.00059386
0.00050288
0.000762914
0.000532472
0.0017982
0.00329588
0.00182577
0.00289017
0.00312808
0.00328625
0.00341282
0.00351213
0.00358634
0.00363064
0.00364445
0.00359488
0.00343811
0.0031192
0.00260294
0.00195172
0.00123407
0.00114443
0.00344145
0.00415045
0.00424917
0.00407321
0.00333114
0.000811488
0.000683171
0.000594662
0.000530991
0.000483192
0.00044601
0.000416415
0.000392776
0.000374614
0.000410894
0.000424765
0.000858355
0.000637914
0.00225881
0.00507687
0.00184089
0.00323325
0.00368115
0.00382708
0.00391401
0.00397261
0.00401685
0.0040502
0.00407731
0.00408188
0.0040313
0.00386976
0.00351007
0.00286769
0.00200291
0.00133035
0.0039107
0.00433478
0.00454074
0.00454528
0.00435553
0.00359256
0.000868832
0.000819436
0.000807026
0.000806255
0.000805082
0.000794887
0.000768915
0.000737577
0.000699212
0.00064466
0.000595791
0.00130909
0.000695404
0.00271907
0.00734836
0.00238178
0.0030449
0.00392185
0.00410114
0.00416219
0.00418585
0.00419913
0.00421903
0.00425374
0.00431315
0.00437527
0.00440878
0.0043729
0.00424166
0.0040435
0.00385122
0.00391026
0.00407904
0.00433514
0.00441081
0.00439228
0.00423275
0.00374751
0.00370731
0.00373748
0.00375185
0.00371386
0.003604
0.00340737
0.00299777
0.0024559
0.00188232
0.00132741
0.00118137
0.00110251
0.000865235
0.00100963
0.00114202
0.00317984
0.00969781
0.0041387
0.00269773
0.00367279
0.00408937
0.00423715
0.00428119
0.00426348
0.00423278
0.00424672
0.00433187
0.00443878
0.00453554
0.0045669
0.00445838
0.0041461
0.00369153
0.00338895
0.00360325
0.00410672
0.00426083
0.00432931
0.00438446
0.00442178
0.00450367
0.00456736
0.00457256
0.00450657
0.00437524
0.00419552
0.00392865
0.0034885
0.00289176
0.00221174
0.00141813
0.00133575
0.00123749
0.001751
0.0012193
0.00363411
0.0115893
0.00755943
0.00398217
0.00297179
0.00319655
0.00369561
0.00409084
0.00430858
0.00419766
0.00419488
0.00428465
0.00439373
0.00451151
0.0045908
0.00454728
0.00425114
0.00363699
0.00303845
0.00321642
0.00402274
0.00422847
0.00433158
0.00443666
0.00454828
0.00464834
0.00469922
0.00467224
0.0045747
0.00443802
0.00430267
0.00418651
0.00394133
0.00347367
0.0029002
0.00226534
0.00203106
0.00207873
0.00217619
0.00148729
0.00374414
0.0115641
0.00942808
0.00746698
0.00545622
0.00415524
0.00370861
0.00381094
0.00412466
0.00418936
0.00419246
0.00422913
0.00430043
0.0043906
0.00447277
0.00450014
0.00435571
0.00376367
0.00285769
0.0028901
0.00404979
0.00430083
0.00443078
0.00454514
0.00463286
0.00468045
0.00466475
0.00457441
0.00443365
0.00429979
0.00423278
0.00426633
0.0043479
0.00413764
0.00387763
0.0039
0.00446512
0.00526767
0.00613768
0.00207987
0.0036612
0.00443022
0.00503006
0.00526776
0.00515254
0.00475492
0.00435712
0.00410328
0.00400436
0.0039693
0.0039995
0.0040698
0.00415538
0.00423577
0.00429898
0.00433826
0.00429496
0.00386278
0.00276547
0.00259588
0.00413673
0.00444259
0.00461596
0.00473269
0.00476789
0.00474672
0.00465761
0.00448023
0.00423247
0.00397456
0.00376967
0.00364264
0.00358233
0.00355669
0.00356712
0.00358807
0.00350312
0.00324554
0.00293839
0.00194843
0.00288114
0.00494063
0.005152
0.00502147
0.0047966
0.00458958
0.00444109
0.00433977
0.00427301
0.00422943
0.00419115
0.00414785
0.00410472
0.00408714
0.00408369
0.00372735
0.00254858
0.00231749
0.00429945
0.00459044
0.0048732
0.00503671
0.00503658
0.00499746
0.00492564
0.00477326
0.00453106
0.00424755
0.00400441
0.00387025
0.0038264
0.00384172
0.00388512
0.00392366
0.00393149
0.00395413
0.00344334
0.00170781
0.00300739
0.00567231
0.00576893
0.00549683
0.00523222
0.00497753
0.00473287
0.00450526
0.00428118
0.00400941
0.00372936
0.00347093
0.00326285
0.00313999
0.00311088
0.00294354
0.0020972
0.00197267
0.00411764
0.00424942
0.00464701
0.00483424
0.00481966
0.00479002
0.00476904
0.00471401
0.00460698
0.0044567
0.00427575
0.00417878
0.00416733
0.0042184
0.0042928
0.00438276
0.00451609
0.00439159
0.00289174
0.00173011
0.00258383
0.00272436
0.00284519
0.002989
0.00278496
0.00256652
0.00237098
0.00220192
0.00204631
0.00190366
0.00177426
0.00166496
0.00156728
0.00147749
0.00139453
0.00131942
0.00125439
0.00119785
0.00113618
0.00114454
0.00124694
0.00123518
0.00125521
0.00126325
0.00126255
0.00126182
0.00126363
0.00126907
0.00128135
0.00130586
0.00134998
0.00140799
0.00148271
0.00157151
0.00167099
0.00178972
0.00180461
0.00166659
0.00151427
0.00159659
)
;

boundaryField
{
    floor
    {
        type            compressible::alphatWallFunction;
        Prt             0.85;
        value           nonuniform List<scalar> 
29
(
0.000149278
0.000113516
0.000108312
0.000102019
9.79914e-05
9.48667e-05
9.09647e-05
8.52454e-05
7.96238e-05
7.41408e-05
6.88154e-05
6.36656e-05
5.86903e-05
5.38761e-05
4.91916e-05
4.4558e-05
3.97654e-05
3.50899e-05
4.54418e-05
4.75738e-05
4.75732e-05
7.41074e-05
8.99387e-05
9.84337e-05
0.000149276
0.000113515
0.000138444
0.000162379
0.000187933
)
;
    }
    ceiling
    {
        type            compressible::alphatWallFunction;
        Prt             0.85;
        value           nonuniform List<scalar> 
43
(
0.000351911
0.00036967
0.000384865
0.00040298
0.000377461
0.000349898
0.000325002
0.000303295
0.000283156
0.000264547
0.000247534
0.000233058
0.000220032
0.000207979
0.000196769
0.000186555
0.00017766
0.000169882
0.00016135
0.000162523
0.000176654
0.000175026
0.000177778
0.000178885
0.000178792
0.000178691
0.000178939
0.000179684
0.000181366
0.000184717
0.00019073
0.000198605
0.000208695
0.000220614
0.000233875
0.000249592
0.000251556
0.000233293
0.000212946
0.000223977
0.000486246
0.000579311
0.000405048
)
;
    }
    sWall
    {
        type            compressible::alphatWallFunction;
        Prt             0.85;
        value           uniform 0.000350624;
    }
    nWall
    {
        type            compressible::alphatWallFunction;
        Prt             0.85;
        value           nonuniform List<scalar> 6(0.000161773 0.000172443 0.000208894 0.00023837 0.000241325 0.000223587);
    }
    sideWalls
    {
        type            empty;
    }
    glass1
    {
        type            compressible::alphatWallFunction;
        Prt             0.85;
        value           nonuniform List<scalar> 9(0.00011807 0.000185155 0.000244812 0.000304082 0.000362142 0.000419318 0.000474903 0.000488411 0.000478594);
    }
    glass2
    {
        type            compressible::alphatWallFunction;
        Prt             0.85;
        value           nonuniform List<scalar> 2(0.000284746 0.000267843);
    }
    sun
    {
        type            compressible::alphatWallFunction;
        Prt             0.85;
        value           nonuniform List<scalar> 
14
(
0.00012181
0.000126469
0.000123166
0.000127443
0.000131266
0.000134579
0.00013749
0.000140126
0.000142624
0.000145155
0.000147191
0.000148579
0.00014929
0.000149529
)
;
    }
    heatsource1
    {
        type            compressible::alphatWallFunction;
        Prt             0.85;
        value           nonuniform List<scalar> 3(0.000123284 0.000143777 0.000162269);
    }
    heatsource2
    {
        type            compressible::alphatWallFunction;
        Prt             0.85;
        value           nonuniform List<scalar> 4(0.000155589 0.00014162 0.000141619 0.000174977);
    }
    Table_master
    {
        type            compressible::alphatWallFunction;
        Prt             0.85;
        value           nonuniform List<scalar> 9(0.000115544 9.68331e-05 8.36804e-05 7.407e-05 6.67608e-05 6.10122e-05 5.63929e-05 5.2673e-05 4.97955e-05);
    }
    Table_slave
    {
        type            compressible::alphatWallFunction;
        Prt             0.85;
        value           nonuniform List<scalar> 9(0.000123798 0.0001167 0.000114909 0.000114798 0.00011463 0.000113156 0.000109391 0.000104826 9.9206e-05);
    }
    inlet
    {
        type            fixedValue;
        value           uniform 1.94e-05;
    }
    outlet
    {
        type            zeroGradient;
    }
}


// ************************************************************************* //
