/*--------------------------------*- C++ -*----------------------------------*\
  =========                 |
  \\      /  F ield         | OpenFOAM: The Open Source CFD Toolbox
   \\    /   O peration     | Website:  https://openfoam.org
    \\  /    A nd           | Version:  6
     \\/     M anipulation  |
\*---------------------------------------------------------------------------*/
FoamFile
{
    version     2.0;
    format      ascii;
    class       surfaceScalarField;
    location    "400";
    object      phi;
}
// * * * * * * * * * * * * * * * * * * * * * * * * * * * * * * * * * * * * * //

dimensions      [1 0 -1 0 0 0 0];

internalField   nonuniform List<scalar> 
852
(
-0.00274316
0.00281342
-0.00316719
0.000424087
-0.00368711
0.000519978
-0.00419844
0.000511395
-0.00465135
0.000452969
-0.00502304
0.000371747
-0.00529426
0.000271285
-0.00544367
0.000149469
-0.00544664
3.0246e-06
-0.00527288
-0.000173703
-0.00489503
-0.000377789
-0.00429505
-0.000599918
-0.00343335
-0.000861648
-0.00213387
-0.00129942
-0.00213049
0.000707593
-0.000703392
0.00108874
-0.00038109
0.00125185
-0.000163044
0.00136816
-0.000116251
0.00147799
-0.000109764
0.00155726
-7.92072e-05
0.0015617
-4.37389e-06
0.00152168
4.00842e-05
0.0014689
5.2841e-05
0.0014127
5.62636e-05
0.00135363
5.91382e-05
0.00129075
6.29409e-05
0.00122092
6.99063e-05
0.00113477
8.62264e-05
0.00100909
0.000125771
0.000814832
0.000194356
0.000602564
0.000212405
0.000617087
-1.43642e-05
0.000624667
-0.00199708
0.00499568
-0.00271644
0.00114351
-0.00337943
0.00118303
-0.00393136
0.00106338
-0.00440258
0.000924249
-0.00479031
0.000759542
-0.00508156
0.000562585
-0.00525822
0.000326186
-0.00529947
4.43337e-05
-0.00518815
-0.00028496
-0.00490894
-0.00065695
-0.00444788
-0.00106092
-0.00380219
-0.00150728
-0.00309494
-0.00200662
-0.00288655
-0.00233882
-0.000904809
-0.00198173
-0.000904804
0.000530394
-0.00122291
0.000676712
-0.000527347
0.000795691
-0.000281961
0.000941143
-0.000261639
0.00108962
-0.000258177
0.00121847
-0.000207986
0.0012429
-2.87459e-05
0.0012446
3.8459e-05
0.00124639
5.11145e-05
0.00124909
5.36232e-05
0.00125236
5.59377e-05
0.00125632
5.90542e-05
0.00126058
6.5714e-05
0.00126294
8.39345e-05
0.00123929
0.000149489
0.00110522
0.000328512
0.000884803
0.000432918
0.000569005
0.000301542
0.00121135
-0.00147305
0.00674573
-0.00228496
0.00195548
-0.00294132
0.00183944
-0.0034584
0.00158052
-0.00390562
0.00137153
-0.00428427
0.00113825
-0.00458234
0.000860712
-0.00478248
0.00052639
-0.0048655
0.000127405
-0.00481461
-0.000335796
-0.00462214
-0.000849366
-0.00429761
-0.00138539
-0.00388726
-0.00191758
-0.0034972
-0.00239662
-0.00313987
-0.0026961
-0.00228665
-0.0028349
-0.0031914
-0.00037965
-0.000827207
-0.000112545
-0.000794392
0.000224409
-0.000618853
0.000488118
-0.000525285
0.000701472
-0.000471466
0.000949915
-0.000456364
0.000921391
0.000960073
0.00101141
0.00106526
0.00112141
0.00118069
0.00124663
0.00133078
0.00148049
0.00125358
0.00055549
0.00101116
0.000675423
0.000652833
0.000659953
0.00189019
-0.00109774
0.00819445
-0.00190838
0.00276618
-0.00240868
0.00233981
-0.00282237
0.00199427
-0.00319853
0.00174774
-0.00353159
0.00147137
-0.00380927
0.00113845
-0.00401461
0.00073179
-0.00412576
0.000238611
-0.00412029
-0.000341211
-0.00399744
-0.000972168
-0.00379464
-0.00158813
-0.00357993
-0.00213224
-0.00342024
-0.00255625
-0.00329454
-0.00282175
-0.0031972
-0.00293218
-0.0038169
-0.00257164
-0.002041
-0.00175909
-0.001234
-0.00163415
-0.000621567
-0.00140676
-0.000173095
-0.00106726
0.000146419
-0.000844736
0.000360986
-0.000685969
0.000454035
-0.00054935
0.000819702
-0.00036576
0.00112947
-0.000309864
0.00141689
-0.000287514
0.00168313
-0.000266336
0.00191154
-0.000228498
0.00206688
-0.000155442
0.0020957
-2.89108e-05
0.00194242
0.000153185
0.00154166
0.00040066
0.00128269
0.000814529
0.000713389
0.00124479
-0.000163574
0.00153699
0.00176088
-0.000809171
0.00941553
-0.00157155
0.00352862
-0.00180209
0.00257041
-0.00206846
0.00226069
-0.0023362
0.00201554
-0.00258154
0.00171677
-0.00279323
0.00135019
-0.00295901
0.000897629
-0.00305938
0.000339037
-0.00306079
-0.00033975
-0.00296073
-0.00107218
-0.00281703
-0.00173177
-0.00269022
-0.002259
-0.00261199
-0.00263443
-0.00257984
-0.00285385
-0.00260955
-0.00290242
-0.00250466
-0.00267647
-0.00188007
-0.00238362
-0.0012386
-0.00227556
-0.000681788
-0.00196352
-0.000313649
-0.00143534
-4.09432e-05
-0.00111738
0.000168995
-0.000895846
0.000352943
-0.000733237
0.000600401
-0.000613158
0.000842543
-0.000551946
0.0010773
-0.000522215
0.00130593
-0.000494899
0.0015193
-0.000441813
0.00169368
-0.000329765
0.00178855
-0.000123727
0.00176222
0.000179572
0.00161513
0.000547805
0.00142874
0.00100098
0.00117897
0.00149462
0.000651467
0.00206456
0.000196702
0.00221573
-0.00112239
0.00131897
-0.00160917
0.000486645
-0.00154545
-0.000720224
0.010599
-0.0013794
0.00418785
-0.00116574
0.00235681
-0.00120909
0.00230409
-0.00136514
0.00217165
-0.00150615
0.00185784
-0.0016137
0.00145779
-0.00169007
0.000974047
-0.00173022
0.000379248
-0.00169548
-0.000374436
-0.00159473
-0.00117287
-0.00150175
-0.0018247
-0.00145791
-0.00230278
-0.00147546
-0.00261683
-0.00155221
-0.00277703
-0.00165579
-0.0027988
-0.0016309
-0.0027013
-0.00138663
-0.00262784
-0.000976187
-0.00268595
-0.000568324
-0.00237132
-0.000335104
-0.0016685
-0.00016235
-0.00129007
-1.74805e-05
-0.00104066
0.000122948
-0.000873607
0.000279784
-0.000769935
0.000444986
-0.00071709
0.000616819
-0.00069399
0.000798145
-0.000676168
0.000989491
-0.000633102
0.00118426
-0.000524478
0.00136207
-0.00030148
0.00147685
6.48468e-05
0.00151973
0.000504972
0.00155562
0.000965148
0.00165294
0.00139736
0.00185016
0.0018674
0.00225017
0.0018158
0.00251257
0.00105665
0.00211384
0.000885441
0.000643446
-0.000975456
0.0120823
-0.00109936
0.0043118
-0.000254861
0.00151237
-4.58336e-05
0.00209512
-0.0001627
0.00228857
-0.000264731
0.00195993
-0.000276185
0.0014693
-0.000229101
0.000927018
-0.00013029
0.00028049
-1.20876e-05
-0.000492585
7.29701e-05
-0.00125788
8.24867e-05
-0.00183417
5.92888e-06
-0.00222617
-0.00014896
-0.00246189
-0.000359838
-0.0025661
-0.000585292
-0.00257329
-0.000752087
-0.00253445
-0.000795852
-0.00258402
-0.000627164
-0.00285458
-0.000387266
-0.00261116
-0.000311294
-0.00174441
-0.000263902
-0.00133741
-0.000226342
-0.00107816
-0.000183088
-0.000916803
-0.000126238
-0.000826728
-5.75394e-05
-0.000785731
2.33556e-05
-0.000774828
0.000121381
-0.000774137
0.000245567
-0.000757233
0.000408703
-0.00068756
0.000621631
-0.000514355
0.000866443
-0.000179913
0.00110933
0.000262137
0.00136477
0.000709762
0.0017201
0.00104208
0.00228051
0.00130706
0.00300163
0.00109474
0.00359386
0.000464481
0.00358011
0.000899262
0.00429986
0.00230102
0.0103462
0.0027632
0.00384968
0.00267476
0.00160087
0.00241146
0.00235848
0.0020345
0.00266559
0.001788
0.00220648
0.00171852
0.00153884
0.00177262
0.000872972
0.00193598
0.000117185
0.00207993
-0.000636477
0.00205828
-0.00123618
0.00189265
-0.00166848
0.00161895
-0.00195242
0.0012695
-0.00211239
0.000878016
-0.00217457
0.000476769
-0.00217199
9.98209e-05
-0.00215745
-0.000202727
-0.00228142
-0.000257341
-0.00279991
-0.000174715
-0.00269373
-0.000269684
-0.00164938
-0.000369127
-0.00123791
-0.000455749
-0.000991481
-0.000526562
-0.000845934
-0.000581537
-0.000771696
-0.000628263
-0.000738947
-0.000671745
-0.00073129
-0.000709838
-0.000735988
-0.000732712
-0.000734304
-0.00071949
-0.000700728
-0.000630111
-0.00060368
-0.000401698
-0.000408274
-6.52264e-05
-7.42839e-05
0.000309686
0.000334902
0.000712868
0.000638951
0.00117553
0.000844454
0.00151728
0.000753044
0.00151366
0.00046816
0.00061311
0.00179988
0.00527197
0.0109734
0.0148224
0.0125685
0.00385485
0.0102637
0.00466336
0.00842256
0.00450674
0.00715086
0.00347823
0.00631127
0.00237848
0.00579252
0.00139177
0.00535912
0.000550642
0.00487037
-0.000147677
0.00433246
-0.000698213
0.0037636
-0.00109958
0.00317392
-0.00136269
0.00257319
-0.0015116
0.00197362
-0.00157495
0.0013844
-0.00158272
0.000812934
-0.00158593
0.000300032
-0.00176846
0.000102784
-0.00260261
8.03442e-05
-0.00267123
-0.000257112
-0.00131187
-0.000499136
-0.000995829
-0.000701911
-0.00078865
-0.000881685
-0.000666104
-0.00104091
-0.000612415
-0.00120121
-0.000578588
-0.00138336
-0.000549088
-0.00159894
-0.000520355
-0.00185522
-0.000477965
-0.00215846
-0.000397435
-0.00251245
-0.000249635
-0.00292566
4.99875e-06
-0.00337672
0.000376833
-0.00392214
0.000880377
-0.00475479
0.00147165
-0.00596111
0.00205084
-0.00764981
0.0024418
-0.00963574
0.00245416
-0.00893149
0.00109569
-0.00326266
0.00462301
0.0051042
0.00457077
0.00471562
0.00561569
0.00346186
0.00601756
0.0030764
0.00606969
0.0023264
0.00601317
0.00144834
0.00586578
0.00069808
0.00558042
0.000137731
0.00513599
-0.000253736
0.00457981
-0.000543347
0.00395874
-0.000741567
0.0033104
-0.000863215
0.00265971
-0.000924208
0.00201185
-0.000934808
0.00133792
-0.000911957
0.000665801
-0.00109629
0.000399203
-0.00233596
0.000292227
-0.0025642
-0.000454563
-0.000565023
-0.000721577
-0.000728761
-0.000983024
-0.000527151
-0.00122535
-0.000423717
-0.00142274
-0.000414973
-0.00161462
-0.00038665
-0.00183496
-0.000328692
-0.00209422
-0.000261043
-0.00238554
-0.00018658
-0.00268559
-9.73349e-05
-0.00294507
9.90537e-06
-0.0031458
0.000205788
-0.00330273
0.000533814
-0.00343242
0.00101012
-0.0035487
0.00158799
-0.00358917
0.00209137
-0.0033675
0.0022202
-0.00187977
0.000966478
0.000400573
-0.00118459
-0.00276872
-0.0008771
0.00603824
0.00125191
0.00258664
0.00252525
0.00218855
0.00350315
0.00209853
0.00428335
0.00154624
0.00476855
0.000963187
0.00495679
0.000509884
0.00489962
0.000194943
0.00467496
-2.90309e-05
0.00433184
-0.000200185
0.00390547
-0.000315142
0.00342912
-0.000386826
0.00292734
-0.000422382
0.00241396
-0.000421374
0.00188052
-0.000378467
0.00129156
-0.000507281
0.000608401
-0.00165275
-0.000177658
-0.00177809
-0.000924845
0.000182219
-0.00117583
-0.000477721
-0.00142279
-0.000280142
-0.00163824
-0.000208216
-0.00181316
-0.000239998
-0.00196228
-0.00023747
-0.00209548
-0.000195438
-0.00221655
-0.000139919
-0.00232636
-7.67129e-05
-0.00242478
1.1501e-06
-0.0024976
8.27748e-05
-0.00248506
0.00019331
-0.00234348
0.000392293
-0.00203546
0.000702165
-0.00158054
0.00113313
-0.000951742
0.00146263
0.000228155
0.00104036
0.00192024
-0.000725549
0.00335279
-0.00261708
0.000686689
-0.00923721
-0.0119529
-0.00586449
-0.00324635
-0.0010313
0.00109119
0.00266084
0.00364784
0.00418238
0.0044031
0.0044011
0.00422913
0.00394338
0.00358715
0.0031966
0.00280827
0.00246399
0.00199196
0.000375672
-0.00136767
-0.00115318
-0.00159867
-0.00184704
-0.0020237
-0.0022322
-0.00243824
-0.00260233
-0.00271107
-0.00275686
-0.00272526
-0.0026128
-0.00239077
-0.00197089
-0.00124238
-8.41765e-05
0.001402
0.00246557
0.00176462
-0.000826998
)
;

boundaryField
{
    floor
    {
        type            calculated;
        value           nonuniform List<scalar> 
29
(
0
0
0
0
0
0
0
0
0
0
0
0
0
0
0
0
0
0
0
0
-7.42785e-06
-1.75441e-05
-2.58965e-05
-3.41559e-05
-3.32795e-06
-4.13952e-06
-1.08152e-05
-1.59969e-05
-1.67616e-05
)
;
    }
    ceiling
    {
        type            calculated;
        value           nonuniform List<scalar> 
43
(
-5.38694e-05
-5.19399e-05
-5.01646e-05
-3.14748e-05
-2.64648e-05
-2.39142e-05
-2.33655e-05
-2.37644e-05
-2.46152e-05
-2.57309e-05
-2.69885e-05
-2.81692e-05
-2.93479e-05
-3.05528e-05
-3.17828e-05
-3.30012e-05
-3.41383e-05
-3.51998e-05
-3.64148e-05
-3.46956e-05
-3.22086e-05
-3.21782e-05
-3.17214e-05
-3.15025e-05
-3.14378e-05
-3.13791e-05
-3.12832e-05
-3.113e-05
-3.08634e-05
-3.03965e-05
-2.96215e-05
-2.86666e-05
-2.75291e-05
-2.62881e-05
-2.50147e-05
-2.34879e-05
-2.31562e-05
-2.45328e-05
-2.54095e-05
-2.26261e-05
2.95741e-06
7.20399e-07
-5.69413e-05
)
;
    }
    sWall
    {
        type            calculated;
        value           uniform -0.000255337;
    }
    nWall
    {
        type            calculated;
        value           nonuniform List<scalar> 6(-6.38549e-05 -7.49808e-05 -7.62379e-05 -9.33065e-05 -0.000102566 -0.000117629);
    }
    sideWalls
    {
        type            empty;
        value           nonuniform 0();
    }
    glass1
    {
        type            calculated;
        value           nonuniform List<scalar> 9(-7.01948e-05 -0.000185131 -0.000276943 -0.000350927 -0.000411849 -0.00046315 -0.00050783 -0.000564868 -0.000630135);
    }
    glass2
    {
        type            calculated;
        value           nonuniform List<scalar> 2(-0.000358937 -0.000396793);
    }
    sun
    {
        type            calculated;
        value           uniform 0;
    }
    heatsource1
    {
        type            calculated;
        value           nonuniform List<scalar> 3(2.06885e-07 2.0668e-07 2.06689e-07);
    }
    heatsource2
    {
        type            calculated;
        value           nonuniform List<scalar> 4(5.14689e-08 5.1711e-08 0 0);
    }
    Table_master
    {
        type            calculated;
        value           nonuniform List<scalar> 9(-1.55167e-07 -1.5524e-07 -1.55255e-07 -1.55264e-07 -1.55268e-07 -1.55269e-07 -1.55266e-07 -1.55254e-07 -1.55217e-07);
    }
    Table_slave
    {
        type            calculated;
        value           nonuniform List<scalar> 9(1.55141e-07 1.55092e-07 1.55001e-07 1.54916e-07 1.54844e-07 1.54799e-07 1.548e-07 1.54816e-07 1.54889e-07);
    }
    inlet
    {
        type            calculated;
        value           uniform -0.00587236;
    }
    outlet
    {
        type            calculated;
        value           nonuniform List<scalar> 2(0.00954643 0.00276766);
    }
}


// ************************************************************************* //
