// -*- C++ -*-
// File generated by PyFoam - sorry for the ugliness

FoamFile
{
 version 2.0;
 format ascii;
 class volVectorField;
 location "2600";
 object U;
}

dimensions [ 0 1 -1 0 0 0 0 ];

internalField nonuniform List<vector> 459
(
  (0.0332857 0.0882616 0)
  (-0.171735 0.0265026 0)
  (-0.196959 0.0178681 0)
  (-0.227685 0.011878 0)
  (-0.249292 0.00532617 0)
  (-0.260814 -0.0015265 0)
  (-0.260791 -0.00868651 0)
  (-0.248587 -0.0161116 0)
  (-0.225153 -0.023049 0)
  (-0.19256 -0.0283987 0)
  (-0.154269 -0.0313366 0)
  (-0.114059 -0.0315784 0)
  (-0.0754992 -0.0294692 0)
  (-0.0436384 -0.0264244 0)
  (-0.033575 -0.0242163 0)
  (-0.00306631 0.00885183 0)
  (-0.0286441 -0.0193499 0)
  (-0.00349977 -0.0293038 0)
  (0.0208481 -0.0218386 0)
  (0.0378876 -0.0147159 0)
  (0.0508994 -0.00940686 0)
  (0.0587579 -0.00558728 0)
  (0.0627222 -0.00359134 0)
  (0.0645107 -0.00274148 0)
  (0.0654331 -0.0023347 0)
  (0.0660194 -0.00206985 0)
  (0.0663454 -0.00185581 0)
  (0.0663494 -0.00160738 0)
  (0.06583 -0.00114615 0)
  (0.0642218 -9.06209e-05 0)
  (0.0603165 0.00209135 0)
  (0.0528027 0.00437109 0)
  (0.0463062 0.00621824 0)
  (-0.0150051 0.0227718 0)
  (0.209623 0.18033 0)
  (-0.158773 0.0697538 0)
  (-0.157455 0.0529911 0)
  (-0.188877 0.0403596 0)
  (-0.210072 0.0261895 0)
  (-0.221686 0.010548 0)
  (-0.222208 -0.00665126 0)
  (-0.210995 -0.0244922 0)
  (-0.189572 -0.0405135 0)
  (-0.160333 -0.0522842 0)
  (-0.126764 -0.0582705 0)
  (-0.0923164 -0.058219 0)
  (-0.060123 -0.0527368 0)
  (-0.0335826 -0.0433793 0)
  (-0.0169487 -0.0320197 0)
  (-0.00331865 -0.0140888 0)
  (-0.00380276 0.0170055 0)
  (0.0728814 0.0368279 0)
  (0.0305832 -0.0200064 0)
  (0.0382518 -0.0335396 0)
  (0.0500901 -0.0290519 0)
  (0.059311 -0.0202648 0)
  (0.065599 -0.0120984 0)
  (0.0681856 -0.00506303 0)
  (0.0686007 -0.0011501 0)
  (0.0685073 0.000489954 0)
  (0.068589 0.00122945 0)
  (0.0687644 0.00168287 0)
  (0.0688878 0.00205905 0)
  (0.0689164 0.00253331 0)
  (0.0687988 0.00345178 0)
  (0.0679941 0.00573658 0)
  (0.064011 0.0120978 0)
  (0.0539507 0.0173806 0)
  (0.0502157 0.0208478 0)
  (-0.0569084 0.0491282 0)
  (0.370794 0.26932 0)
  (-0.173767 0.110484 0)
  (-0.117712 0.0852337 0)
  (-0.147587 0.0629469 0)
  (-0.166064 0.0397369 0)
  (-0.176313 0.0144707 0)
  (-0.175802 -0.0132515 0)
  (-0.163749 -0.0414647 0)
  (-0.142848 -0.0658305 0)
  (-0.116103 -0.0827025 0)
  (-0.0870235 -0.0902594 0)
  (-0.058295 -0.0888348 0)
  (-0.031952 -0.0795397 0)
  (-0.0100684 -0.0642515 0)
  (0.00632171 -0.0434679 0)
  (0.0175717 -0.0179663 0)
  (0.0233787 0.0188057 0)
  (0.120573 -0.0357871 0)
  (0.0790498 -0.0436214 0)
  (0.0730072 -0.0417815 0)
  (0.0747921 -0.0344598 0)
  (0.0761241 -0.0250552 0)
  (0.0769858 -0.0169294 0)
  (0.0752848 -0.0135305 0)
  (0.0707433 -0.00950246 0)
  (0.0675676 -0.00731431 0)
  (0.0661398 -0.0060604 0)
  (0.0655232 -0.00525796 0)
  (0.0652143 -0.0047004 0)
  (0.0652228 -0.0041912 0)
  (0.0660192 -0.00335253 0)
  (0.06882 -0.00016897 0)
  (0.0664725 0.0173478 0)
  (0.0521379 0.0295176 0)
  (0.0569612 0.03735 0)
  (-0.0944804 0.0758093 0)
  (0.515602 0.34065 0)
  (-0.206648 0.146422 0)
  (-0.0765097 0.112299 0)
  (-0.103767 0.0816857 0)
  (-0.116467 0.0516109 0)
  (-0.122401 0.0181106 0)
  (-0.117133 -0.0200505 0)
  (-0.101969 -0.0585624 0)
  (-0.0812591 -0.0899213 0)
  (-0.0581429 -0.110103 0)
  (-0.0355763 -0.117794 0)
  (-0.0147228 -0.11457 0)
  (0.00407452 -0.101731 0)
  (0.0196667 -0.0822085 0)
  (0.033209 -0.058149 0)
  (0.0480156 -0.0309008 0)
  (0.0704835 -0.000803407 0)
  (0.102671 0.0136955 0)
  (0.108575 -0.0283348 0)
  (0.0931204 -0.0379089 0)
  (0.0837156 -0.0354006 0)
  (0.0789423 -0.0298486 0)
  (0.0755743 -0.0225434 0)
  (0.0737004 -0.0136562 0)
  (0.0753308 -0.00799204 0)
  (0.0798726 -0.00611128 0)
  (0.0835666 -0.00503708 0)
  (0.0859011 -0.0042139 0)
  (0.0871488 -0.00322191 0)
  (0.0866941 -0.0017842 0)
  (0.0835496 0.000300779 0)
  (0.0764667 0.00333436 0)
  (0.0624506 0.00789376 0)
  (0.0507866 0.0286675 0)
  (0.0383037 0.0456239 0)
  (0.0606922 0.0582916 0)
  (-0.139753 0.0983664 0)
  (0.639762 0.395757 0)
  (-0.247138 0.175646 0)
  (-0.0367612 0.127272 0)
  (-0.057988 0.0917473 0)
  (-0.0621039 0.0575378 0)
  (-0.0596449 0.017438 0)
  (-0.0427506 -0.0308851 0)
  (-0.0234096 -0.0768665 0)
  (-0.00473243 -0.111005 0)
  (0.0117679 -0.130729 0)
  (0.0244166 -0.135709 0)
  (0.0343722 -0.129596 0)
  (0.0420385 -0.114775 0)
  (0.0483012 -0.0939297 0)
  (0.0543757 -0.0697169 0)
  (0.0621586 -0.0452697 0)
  (0.074341 -0.0265317 0)
  (0.0850384 -0.0251153 0)
  (0.0860139 -0.0334043 0)
  (0.0789135 -0.0335289 0)
  (0.0701604 -0.0294191 0)
  (0.0632736 -0.0243712 0)
  (0.058258 -0.0187536 0)
  (0.0554148 -0.0126018 0)
  (0.0552768 -0.00681814 0)
  (0.0574823 -0.00408298 0)
  (0.059964 -0.00303292 0)
  (0.0623149 -0.00213068 0)
  (0.0644257 -0.000360754 0)
  (0.0658662 0.00276649 0)
  (0.0654543 0.00733578 0)
  (0.0626352 0.0135191 0)
  (0.0566761 0.0219994 0)
  (0.0495742 0.0378594 0)
  (0.0382284 0.0569747 0)
  (0.0681164 0.078108 0)
  (-0.0381701 0.110346 0)
  (0.047575 0.0250291 0)
  (-0.0691204 -0.0375444 0)
  (-0.286057 -0.0611303 0)
  (0.729109 0.441441 0)
  (-0.286353 0.194848 0)
  (-0.00691118 0.121502 0)
  (-0.00963487 0.0896091 0)
  (-0.000702243 0.0540547 0)
  (0.0197913 0.00489779 0)
  (0.0494809 -0.0507018 0)
  (0.0691991 -0.0947589 0)
  (0.0814625 -0.124236 0)
  (0.0869896 -0.139187 0)
  (0.08717 -0.141009 0)
  (0.0837851 -0.132307 0)
  (0.0783399 -0.115897 0)
  (0.0724218 -0.094703 0)
  (0.0674726 -0.0714683 0)
  (0.0647528 -0.0492055 0)
  (0.0649858 -0.0319626 0)
  (0.0650877 -0.0247196 0)
  (0.0611349 -0.0242968 0)
  (0.0533028 -0.0237741 0)
  (0.0446401 -0.0213209 0)
  (0.0375419 -0.0180235 0)
  (0.0325167 -0.0144074 0)
  (0.0298219 -0.0106304 0)
  (0.0295461 -0.0074756 0)
  (0.0312355 -0.00632542 0)
  (0.0338452 -0.00616552 0)
  (0.0369713 -0.0056943 0)
  (0.0404218 -0.00387315 0)
  (0.0440481 0.000150905 0)
  (0.0470316 0.00649112 0)
  (0.0485641 0.0148269 0)
  (0.0488995 0.025419 0)
  (0.0495944 0.0401208 0)
  (0.0476477 0.0586898 0)
  (0.0762971 0.083411 0)
  (0.0479058 0.102801 0)
  (0.0976094 0.0684178 0)
  (0.122255 0.0447813 0)
  (-0.138252 -0.00971876 0)
  (0.785985 0.483214 0)
  (-0.304184 0.179262 0)
  (0.0241034 0.0652457 0)
  (0.0578742 0.0549825 0)
  (0.0841675 0.0289425 0)
  (0.128366 -0.0252789 0)
  (0.156979 -0.0735891 0)
  (0.170717 -0.107847 0)
  (0.171631 -0.127989 0)
  (0.162422 -0.135418 0)
  (0.146263 -0.131999 0)
  (0.12626 -0.120185 0)
  (0.105104 -0.102755 0)
  (0.0850342 -0.0823714 0)
  (0.067638 -0.0612268 0)
  (0.0538885 -0.0417256 0)
  (0.0440097 -0.0267834 0)
  (0.0363755 -0.0187918 0)
  (0.0287086 -0.0162233 0)
  (0.0204823 -0.0152981 0)
  (0.0128194 -0.0139865 0)
  (0.00678699 -0.0123856 0)
  (0.0026924 -0.010763 0)
  (0.000662255 -0.00925363 0)
  (0.000652065 -0.00834584 0)
  (0.00218858 -0.00856756 0)
  (0.00459866 -0.00924661 0)
  (0.00763563 -0.00945573 0)
  (0.0113495 -0.00828308 0)
  (0.0158969 -0.00468141 0)
  (0.0224369 0.00231394 0)
  (0.0285488 0.0114365 0)
  (0.0345607 0.0220596 0)
  (0.0424217 0.034934 0)
  (0.050453 0.0498359 0)
  (0.0766816 0.0698213 0)
  (0.0896208 0.0775519 0)
  (0.126437 0.0509091 0)
  (0.1687 0.0418867 0)
  (-0.0321743 0.0953268 0)
  (0.893976 0.482616 0)
  (-0.0561067 0.157631 0)
  (0.119645 -0.0236338 0)
  (0.208214 -0.0598268 0)
  (0.254307 -0.073395 0)
  (0.279163 -0.0900772 0)
  (0.287821 -0.105441 0)
  (0.279776 -0.115106 0)
  (0.257248 -0.117947 0)
  (0.224514 -0.114194 0)
  (0.186298 -0.104701 0)
  (0.146702 -0.0907221 0)
  (0.109008 -0.0741112 0)
  (0.0755267 -0.056668 0)
  (0.0474569 -0.0395953 0)
  (0.02557 -0.0246077 0)
  (0.00996891 -0.0140223 0)
  (-0.000882225 -0.00883011 0)
  (-0.00893852 -0.00761799 0)
  (-0.0156944 -0.00771623 0)
  (-0.02132 -0.00783895 0)
  (-0.0256185 -0.00788777 0)
  (-0.028578 -0.00798704 0)
  (-0.0302247 -0.00826985 0)
  (-0.0307036 -0.00895838 0)
  (-0.0303983 -0.0101423 0)
  (-0.0297092 -0.0114816 0)
  (-0.0287445 -0.0124986 0)
  (-0.0273246 -0.0126825 0)
  (-0.0250063 -0.011432 0)
  (-0.0207054 -0.00797677 0)
  (-0.0109612 -0.00165258 0)
  (-0.00160051 0.00639264 0)
  (0.0102001 0.0146184 0)
  (0.0226143 0.0215745 0)
  (0.045189 0.0298987 0)
  (0.0653499 0.0234807 0)
  (0.0844993 -0.00278939 0)
  (0.145054 0.0511776 0)
  (-0.474426 0.217987 0)
  (1.04631 0.426976 0)
  (0.495644 0.278751 0)
  (0.514794 0.172875 0)
  (0.549869 0.0945911 0)
  (0.529762 0.0405689 0)
  (0.481924 -0.00216912 0)
  (0.426647 -0.0333462 0)
  (0.366241 -0.0522415 0)
  (0.301555 -0.0601923 0)
  (0.235984 -0.0597428 0)
  (0.173625 -0.0536034 0)
  (0.117372 -0.0437652 0)
  (0.0694653 -0.0324073 0)
  (0.0303712 -0.0212044 0)
  (-0.000730687 -0.0109923 0)
  (-0.0219369 -0.00411809 0)
  (-0.0339841 -0.00120778 0)
  (-0.0413155 -0.000675958 0)
  (-0.0464131 -0.0014017 0)
  (-0.0507779 -0.00248895 0)
  (-0.0545887 -0.00357093 0)
  (-0.0578305 -0.00462656 0)
  (-0.0605471 -0.00571763 0)
  (-0.0628387 -0.0068889 0)
  (-0.064925 -0.00818202 0)
  (-0.0671533 -0.00953 0)
  (-0.0698829 -0.0106683 0)
  (-0.0734119 -0.0112084 0)
  (-0.0780456 -0.0106602 0)
  (-0.0842135 -0.00839504 0)
  (-0.0925002 -0.00365138 0)
  (-0.102838 0.00413103 0)
  (-0.113571 0.0146139 0)
  (-0.129308 0.0278972 0)
  (-0.154115 0.0437991 0)
  (-0.190127 0.0608007 0)
  (-0.241851 0.0744789 0)
  (-0.303566 0.0826379 0)
  (-0.38108 0.0860965 0)
  (-0.655311 0.0802239 0)
  (-0.18015 -0.0205615 0)
  (0.100251 -0.0357776 0)
  (0.177117 -0.0552433 0)
  (0.164177 -0.0477233 0)
  (0.144926 -0.0345745 0)
  (0.120814 -0.0226203 0)
  (0.0888588 -0.0124058 0)
  (0.0530335 -0.00442545 0)
  (0.0181807 0.00107349 0)
  (-0.0147063 0.00474158 0)
  (-0.0383095 0.00605674 0)
  (-0.0555001 0.00617623 0)
  (-0.0664336 0.00522354 0)
  (-0.0721198 0.00314687 0)
  (-0.0753325 0.000676948 0)
  (-0.0775389 -0.00184536 0)
  (-0.0795772 -0.00439311 0)
  (-0.0817553 -0.00678131 0)
  (-0.084242 -0.00882435 0)
  (-0.0869784 -0.0103145 0)
  (-0.0898075 -0.0113756 0)
  (-0.0927878 -0.0120821 0)
  (-0.096099 -0.0124725 0)
  (-0.0999251 -0.0124985 0)
  (-0.104376 -0.0119626 0)
  (-0.109425 -0.010522 0)
  (-0.114861 -0.00772219 0)
  (-0.120268 -0.00304312 0)
  (-0.125029 0.00388054 0)
  (-0.128679 0.0133162 0)
  (-0.131592 0.0261837 0)
  (-0.134042 0.0429901 0)
  (-0.136829 0.0631395 0)
  (-0.140113 0.0835068 0)
  (-0.140046 0.0958093 0)
  (-0.117876 0.085577 0)
  (-0.0419327 0.0285039 0)
  (-0.209342 -0.18683 0)
  (0.0360892 0.198002 0)
  (0.0136405 0.0637362 0)
  (-0.0320666 0.0117599 0)
  (-0.0557111 0.0109676 0)
  (-0.0740056 0.0170498 0)
  (-0.0874909 0.0216356 0)
  (-0.0965399 0.0254153 0)
  (-0.103316 0.0285601 0)
  (-0.108154 0.0304902 0)
  (-0.111324 0.0309449 0)
  (-0.112606 0.0304115 0)
  (-0.112531 0.0301058 0)
  (-0.111328 0.0301998 0)
  (-0.10959 0.0307521 0)
  (-0.107939 0.0319929 0)
  (-0.106615 0.0338314 0)
  (-0.105743 0.0358709 0)
  (-0.105349 0.0376239 0)
  (-0.10541 0.0386109 0)
  (-0.105829 0.0383856 0)
  (-0.106632 0.0372476 0)
  (-0.10781 0.0356915 0)
  (-0.10936 0.0338242 0)
  (-0.111259 0.0317299 0)
  (-0.113437 0.0295196 0)
  (-0.115757 0.0273079 0)
  (-0.117971 0.0251759 0)
  (-0.1196 0.0233846 0)
  (-0.119847 0.0231694 0)
  (-0.117546 0.0257157 0)
  (-0.111247 0.0320426 0)
  (-0.0997556 0.0430672 0)
  (-0.083195 0.0586372 0)
  (-0.0630784 0.0747837 0)
  (-0.0423556 0.0819941 0)
  (0.0395751 0.0328391 0)
  (0.150391 -0.058864 0)
  (-0.0518069 -0.0627459 0)
  (-0.0916438 -0.34668 0)
  (-0.446883 -0.138593 0)
  (-0.333659 0.0441896 0)
  (-0.291916 -0.0445254 0)
  (-0.251133 -0.0510556 0)
  (-0.239893 -0.0437137 0)
  (-0.231938 -0.0367336 0)
  (-0.222686 -0.0323406 0)
  (-0.211098 -0.0301358 0)
  (-0.197447 -0.0302273 0)
  (-0.182711 -0.0331443 0)
  (-0.16829 -0.0388781 0)
  (-0.155409 -0.0466463 0)
  (-0.14468 -0.0551676 0)
  (-0.136187 -0.0639164 0)
  (-0.129779 -0.0726761 0)
  (-0.125081 -0.081131 0)
  (-0.121649 -0.0889275 0)
  (-0.119149 -0.0956717 0)
  (-0.11737 -0.100926 0)
  (-0.116222 -0.104328 0)
  (-0.115709 -0.105667 0)
  (-0.115815 -0.105136 0)
  (-0.116428 -0.103298 0)
  (-0.117386 -0.100315 0)
  (-0.118523 -0.0962808 0)
  (-0.11962 -0.0911966 0)
  (-0.120371 -0.0849641 0)
  (-0.120375 -0.0773358 0)
  (-0.1191 -0.0681933 0)
  (-0.115584 -0.0581065 0)
  (-0.107998 -0.0470063 0)
  (-0.093761 -0.0345647 0)
  (-0.0707278 -0.0200798 0)
  (-0.0393686 -0.00306004 0)
  (0.00553965 0.0160362 0)
  (0.0466804 0.00785099 0)
  (0.107636 -0.0467451 0)
  (0.119279 -0.0880681 0)
  (-0.517219 0.0111469 0)
)
;

boundaryField
{
  floor
  {
    type noSlip;
  }
  ceiling
  {
    type noSlip;
  }
  sWall
  {
    type noSlip;
  }
  nWall
  {
    type noSlip;
  }
  sideWalls
  {
    type empty;
  }
  glass1
  {
    type noSlip;
  }
  glass2
  {
    type noSlip;
  }
  sun
  {
    type noSlip;
  }
  heatsource1
  {
    type noSlip;
  }
  heatsource2
  {
    type noSlip;
  }
  Table_master
  {
    type noSlip;
  }
  Table_slave
  {
    type noSlip;
  }
  inlet
  {
    type fixedValue;
    value uniform (0.277164 -0.114805 0);
  }
  outlet
  {
    type zeroGradient;
  }
} 	// ************************************************************************* //

