/*--------------------------------*- C++ -*----------------------------------*\
  =========                 |
  \\      /  F ield         | OpenFOAM: The Open Source CFD Toolbox
   \\    /   O peration     | Website:  https://openfoam.org
    \\  /    A nd           | Version:  6
     \\/     M anipulation  |
\*---------------------------------------------------------------------------*/
FoamFile
{
    version     2.0;
    format      ascii;
    class       volScalarField;
    location    "30";
    object      alphat;
}
// * * * * * * * * * * * * * * * * * * * * * * * * * * * * * * * * * * * * * //

dimensions      [1 -1 -1 0 0 0 0];

internalField   nonuniform List<scalar> 
459
(
0.00161341
0.00179571
0.00180169
0.00181114
0.00178291
0.0017419
0.00171248
0.00168672
0.00166084
0.00163116
0.00159592
0.00155349
0.00150287
0.00144639
0.00138652
0.000753788
0.000966009
0.00107836
0.00110285
0.00109625
0.00103989
0.000924993
0.000812013
0.000709164
0.000626579
0.000571808
0.000542377
0.000530231
0.000530191
0.000546039
0.000594034
0.000672192
0.00075915
0.000686368
0.00221265
0.00760796
0.00858913
0.00945239
0.00966734
0.00952362
0.00924973
0.00905345
0.00897228
0.00894913
0.00892249
0.00876329
0.00818644
0.00678197
0.00414393
0.00140998
0.00110238
0.00102555
0.0033878
0.00525984
0.00616166
0.00605165
0.00500076
0.00334981
0.0025219
0.00196881
0.00162244
0.00142685
0.00132918
0.00129076
0.00129952
0.00139022
0.00176629
0.00240318
0.00296409
0.000895531
0.00254895
0.00950515
0.0106115
0.0122657
0.0126684
0.012464
0.012127
0.011823
0.0116307
0.0115837
0.0117211
0.0120001
0.0119062
0.0109014
0.00856306
0.00507464
0.00154772
0.00144039
0.00606758
0.00858522
0.00933641
0.00849823
0.0057706
0.00122168
0.000945137
0.000771052
0.000657438
0.000587676
0.000550588
0.000535993
0.000541941
0.000609465
0.00150408
0.00270663
0.00378269
0.00106991
0.00257017
0.00681579
0.00834162
0.0108558
0.012343
0.0128252
0.0128299
0.0126935
0.0125952
0.0123404
0.0121939
0.012755
0.013352
0.01328
0.0118886
0.00887446
0.00470158
0.00170619
0.00707634
0.010004
0.0114458
0.0114544
0.00984763
0.00577187
0.0013171
0.00122956
0.00123574
0.00126979
0.00130991
0.00134824
0.00137662
0.00138345
0.00135584
0.00193315
0.00295501
0.00411026
0.00130545
0.00338057
0.00408177
0.00437781
0.00506511
0.00657355
0.00832766
0.00984796
0.0109455
0.0115812
0.0118141
0.0119745
0.0126647
0.0136381
0.0144171
0.01429
0.0131474
0.0114286
0.0100521
0.0117907
0.0130252
0.0135046
0.0132065
0.012076
0.0101636
0.00820722
0.00795645
0.0079657
0.00802245
0.00806243
0.00804178
0.00792516
0.00769724
0.00735749
0.00679811
0.00630813
0.00576151
0.00338358
0.00152343
0.0014403
0.00129729
0.00444575
0.00550455
0.00546902
0.00526984
0.00561222
0.00661377
0.00797407
0.00933321
0.0104308
0.0111689
0.0116325
0.0121742
0.0133517
0.0145633
0.0150871
0.0148767
0.0143443
0.01395
0.0142974
0.0146193
0.0146582
0.0143283
0.0136274
0.0126888
0.0118517
0.0115038
0.0113437
0.0112145
0.011032
0.0107298
0.0103026
0.00982195
0.00939404
0.00902697
0.00851555
0.00774543
0.00627642
0.00498417
0.00476847
0.00167129
0.00478585
0.00690156
0.0072461
0.0063027
0.00610457
0.00657361
0.00758064
0.00880181
0.00992767
0.0107921
0.0114263
0.0120723
0.0130321
0.0141756
0.0147675
0.0147627
0.0146256
0.0146028
0.0147462
0.0148541
0.0148014
0.01454
0.01408
0.0135032
0.0129501
0.0125238
0.0121717
0.0118354
0.0114284
0.0108834
0.0102404
0.00963752
0.00922267
0.00907621
0.00908972
0.00874369
0.00804208
0.00716253
0.00616832
0.00196906
0.00514704
0.00713155
0.00837139
0.00721207
0.00678259
0.00701489
0.00782013
0.00887855
0.00990856
0.0107521
0.011428
0.0121012
0.0128841
0.0135592
0.0136983
0.0134419
0.0133238
0.0134885
0.0137545
0.0139294
0.0139379
0.0137708
0.0134397
0.0129804
0.0124514
0.0119134
0.0114177
0.0109918
0.0105515
0.00998291
0.00933905
0.00878886
0.00848167
0.00852035
0.00888183
0.009154
0.00906785
0.00822495
0.00771102
0.00210898
0.00559802
0.00658805
0.00976854
0.00755217
0.00743175
0.00789165
0.00841825
0.00928057
0.0102227
0.0109621
0.0115633
0.0120941
0.0125383
0.0125841
0.0119938
0.0112557
0.0110056
0.0113002
0.011768
0.0120861
0.0121856
0.0121047
0.0118557
0.0114355
0.010863
0.0102261
0.00970177
0.00942761
0.00925431
0.00887464
0.0082465
0.0075491
0.00689912
0.00633146
0.00583379
0.00535792
0.0047381
0.0040281
0.00351032
0.00196726
0.0128234
0.00746517
0.00742404
0.00881535
0.00925693
0.00988385
0.0105727
0.0111345
0.0114768
0.0115853
0.0114345
0.0107675
0.00952734
0.00844571
0.00811922
0.00854205
0.00923251
0.0097163
0.00988582
0.00987603
0.00970849
0.00932886
0.00871092
0.00799475
0.0075157
0.00754833
0.00791054
0.00802126
0.00761839
0.00704585
0.00654632
0.00614512
0.00573269
0.00519092
0.00445878
0.00361831
0.00281968
0.00164633
0.0044115
0.00499271
0.00757411
0.00856799
0.00910657
0.00954178
0.00985775
0.00999907
0.00982464
0.00936611
0.0087078
0.00768724
0.00632788
0.00536782
0.00517715
0.00574179
0.00663546
0.00727672
0.00751885
0.00758168
0.00749511
0.0071711
0.00654804
0.00578689
0.00529329
0.00538042
0.00593082
0.00637643
0.00628471
0.00610081
0.00597098
0.00592343
0.00589417
0.00578015
0.0054268
0.00479696
0.00380292
0.00168618
0.00227254
0.00257375
0.00284275
0.00212206
0.00222323
0.00235536
0.0024342
0.00244132
0.00239116
0.0022542
0.00210222
0.00195449
0.00180579
0.00165791
0.00153207
0.00142746
0.00136606
0.0013691
0.00141082
0.00144194
0.00145343
0.00145498
0.00144699
0.00142602
0.00138914
0.0013454
0.00132398
0.00134341
0.00139022
0.00144925
0.0015117
0.00156305
0.00162578
0.00171075
0.00182379
0.00192402
0.00195762
0.00188685
0.00173491
0.00157929
)
;

boundaryField
{
    floor
    {
        type            compressible::alphatWallFunction;
        Prt             0.85;
        value           nonuniform List<scalar> 
29
(
0.000195644
0.000107037
0.000137483
0.00015327
0.000156679
0.000155748
0.000147855
0.000131615
0.000115419
0.000100451
8.82581e-05
8.00804e-05
7.56566e-05
7.38287e-05
7.3834e-05
7.62542e-05
8.35138e-05
9.51586e-05
0.000107885
9.71919e-05
9.71908e-05
0.000127485
0.000152116
0.000184683
0.000195641
0.000107036
0.000145834
0.000202926
0.00023849
)
;
    }
    ceiling
    {
        type            compressible::alphatWallFunction;
        Prt             0.85;
        value           nonuniform List<scalar> 
43
(
0.000312496
0.000350939
0.000384873
0.000293065
0.000306126
0.000323092
0.000333165
0.000334071
0.000327662
0.000310101
0.00029046
0.00027122
0.000251685
0.000232109
0.000215306
0.000201253
0.000192998
0.000193457
0.000199093
0.000203268
0.000204807
0.000205015
0.000203942
0.000201122
0.000196151
0.000190217
0.000187269
0.00018988
0.000196226
0.000204211
0.000212662
0.000219568
0.000227947
0.000239231
0.000254158
0.000267284
0.000271677
0.000262415
0.000242408
0.000221708
0.000717651
0.000832709
0.000577039
)
;
    }
    sWall
    {
        type            compressible::alphatWallFunction;
        Prt             0.85;
        value           uniform 0.000311355;
    }
    nWall
    {
        type            compressible::alphatWallFunction;
        Prt             0.85;
        value           nonuniform List<scalar> 6(0.000183262 0.000233596 0.000272747 0.000230269 0.000235571 0.000221322);
    }
    sideWalls
    {
        type            empty;
    }
    glass1
    {
        type            compressible::alphatWallFunction;
        Prt             0.85;
        value           nonuniform List<scalar> 9(0.000220583 0.00029812 0.000340815 0.000343703 0.000443933 0.00057232 0.000612536 0.000654952 0.000707575);
    }
    glass2
    {
        type            compressible::alphatWallFunction;
        Prt             0.85;
        value           nonuniform List<scalar> 2(0.000288561 0.000270376);
    }
    sun
    {
        type            compressible::alphatWallFunction;
        Prt             0.85;
        value           nonuniform List<scalar> 
14
(
0.000226137
0.000250295
0.000251074
0.000252327
0.000248629
0.000243238
0.000239366
0.000235964
0.000232532
0.000228581
0.000223876
0.000218192
0.000211387
0.000203763
)
;
    }
    heatsource1
    {
        type            compressible::alphatWallFunction;
        Prt             0.85;
        value           nonuniform List<scalar> 3(0.000214433 0.000203207 0.000183736);
    }
    heatsource2
    {
        type            compressible::alphatWallFunction;
        Prt             0.85;
        value           nonuniform List<scalar> 4(0.000199051 0.000156764 0.000156762 0.000217588);
    }
    Table_master
    {
        type            compressible::alphatWallFunction;
        Prt             0.85;
        value           nonuniform List<scalar> 9(0.000173318 0.000134676 0.000109688 9.30314e-05 8.26477e-05 7.70783e-05 7.48836e-05 7.58043e-05 8.60169e-05);
    }
    Table_slave
    {
        type            compressible::alphatWallFunction;
        Prt             0.85;
        value           nonuniform List<scalar> 9(0.000186443 0.000174432 0.000175272 0.000179946 0.00018544 0.000190675 0.000194544 0.000195485 0.000191753);
    }
    inlet
    {
        type            fixedValue;
        value           uniform 1.94e-05;
    }
    outlet
    {
        type            zeroGradient;
    }
}


// ************************************************************************* //
