/*--------------------------------*- C++ -*----------------------------------*\
  =========                 |
  \\      /  F ield         | OpenFOAM: The Open Source CFD Toolbox
   \\    /   O peration     | Website:  https://openfoam.org
    \\  /    A nd           | Version:  6
     \\/     M anipulation  |
\*---------------------------------------------------------------------------*/
FoamFile
{
    version     2.0;
    format      ascii;
    class       volScalarField;
    location    "30";
    object      epsilon;
}
// * * * * * * * * * * * * * * * * * * * * * * * * * * * * * * * * * * * * * //

dimensions      [0 2 -3 0 0 0 0];

internalField   nonuniform List<scalar> 
459
(
0.000939234
0.00129142
0.00130379
0.00132433
0.0012636
0.0011787
0.00112026
0.00107057
0.001022
0.000968043
0.00090645
0.000835826
0.000756509
0.000674157
0.000593653
9.54601e-05
0.000200875
0.000279377
0.000298785
0.000293363
0.000250301
0.000176052
0.000119033
7.92635e-05
5.46903e-05
4.16078e-05
3.55476e-05
3.32393e-05
3.32506e-05
3.63472e-05
4.68484e-05
6.79042e-05
9.77129e-05
7.21423e-05
0.00242872
0.00273704
0.00201319
0.00211789
0.00191023
0.00152714
0.00118539
0.000952405
0.000789644
0.000667432
0.000571528
0.000495495
0.000439602
0.000409211
0.000434844
0.000624286
0.000297883
0.000240131
0.000227181
0.000202557
0.000200425
0.000199475
0.000190431
0.000164708
0.000116061
7.83652e-05
5.39883e-05
4.03315e-05
3.3658e-05
3.10715e-05
3.14475e-05
3.67106e-05
5.32301e-05
8.81542e-05
0.000197299
0.000160147
0.00372452
0.00496083
0.00461924
0.00540932
0.0049216
0.00384293
0.00280364
0.00195249
0.00135728
0.000986195
0.000740521
0.000568768
0.000461919
0.000405508
0.000399574
0.000472048
0.000825405
0.000665372
0.000304941
0.000234078
0.000220316
0.000221855
0.000240045
0.000405855
0.000187767
0.000101891
6.31601e-05
4.51433e-05
3.71623e-05
3.43158e-05
3.55015e-05
5.05866e-05
9.15236e-05
0.000147569
0.00034351
0.00027316
0.0038326
0.00596742
0.0071064
0.00933083
0.0095897
0.00824119
0.00639266
0.00459956
0.00289001
0.00177843
0.00116377
0.000760108
0.000542267
0.000431877
0.000391794
0.00042014
0.000588204
0.00110576
0.000452832
0.000285677
0.000243751
0.000231989
0.000237011
0.000280769
0.000509041
0.000414006
0.000420191
0.000455897
0.000500564
0.00054594
0.000581311
0.000590218
0.00055586
0.000374081
0.000307523
0.000430304
0.000496453
0.0087196
0.00902123
0.00765401
0.00679878
0.00668583
0.00663194
0.00620895
0.00538673
0.00432302
0.00321178
0.00199782
0.00108979
0.000676406
0.000480725
0.000395963
0.000371883
0.000387022
0.000412626
0.000319386
0.000268854
0.000245487
0.000235884
0.000234875
0.00024312
0.000262833
0.000258593
0.000265834
0.000283009
0.000307062
0.000336635
0.000367358
0.000390232
0.000394627
0.000374288
0.00035927
0.000392344
0.000463004
0.000789078
0.000666532
0.000486972
0.019804
0.0174639
0.0125676
0.00887732
0.00683206
0.00587993
0.00532935
0.00477167
0.0040631
0.00323136
0.0023443
0.00149267
0.00084993
0.000543432
0.000413869
0.000362819
0.000343534
0.000326557
0.000293057
0.000267503
0.000251589
0.000243195
0.000239866
0.000240683
0.000245628
0.000251009
0.000262333
0.000281701
0.000311054
0.000353718
0.000407655
0.000462206
0.000501088
0.000505755
0.000486948
0.000480575
0.000503021
0.000580519
0.000958892
0.00104052
0.0246571
0.0259211
0.0176148
0.00977166
0.00673507
0.00537655
0.00469962
0.00419323
0.00362117
0.00294088
0.00220504
0.00151089
0.000951643
0.000598596
0.000435316
0.000369293
0.000341354
0.000320763
0.000297697
0.00027808
0.000264349
0.000256117
0.000251939
0.000251277
0.000254752
0.000262559
0.000276035
0.000298621
0.000338775
0.000405456
0.000499467
0.000609097
0.000717599
0.000811588
0.000848768
0.000916909
0.00102195
0.0010928
0.00157388
0.00170067
0.0306118
0.0374052
0.0322866
0.00897269
0.0054441
0.00443102
0.00397036
0.00358242
0.00311317
0.00254786
0.0019344
0.00136117
0.000912541
0.000616347
0.00045736
0.000386051
0.00035785
0.000339898
0.000320554
0.000302372
0.000288721
0.000280007
0.000275344
0.000274517
0.000278139
0.000286521
0.000300778
0.000327915
0.000383708
0.000484292
0.000631866
0.000815516
0.00103499
0.00132547
0.00174701
0.00228337
0.00303563
0.00345606
0.00684743
0.00208904
0.0393181
0.0638514
0.0687542
0.0172923
0.00478328
0.00380958
0.00337715
0.00305334
0.00263248
0.00214869
0.00163686
0.00117401
0.000825914
0.000605635
0.00048094
0.000419302
0.000395081
0.000383697
0.000369538
0.000353103
0.000339467
0.000330293
0.000325133
0.000323819
0.000326416
0.000332463
0.000343904
0.00037281
0.000441657
0.000566705
0.000739656
0.00093424
0.00113222
0.00134038
0.00157802
0.00185279
0.00213737
0.00239143
0.00270492
0.00169979
0.139691
0.0294915
0.00441022
0.00317355
0.00288055
0.0026311
0.00227933
0.00184433
0.00140016
0.00103202
0.000774198
0.000620969
0.000531618
0.00048111
0.000464415
0.000467851
0.000470807
0.00046586
0.000457618
0.000450577
0.000445003
0.000440149
0.000435118
0.000429795
0.000428844
0.00044798
0.000506578
0.000605484
0.000724694
0.000863942
0.00103594
0.00124501
0.00146303
0.00163052
0.00168211
0.00158636
0.00137694
0.000996694
0.0191841
0.00382198
0.0024743
0.00247122
0.00256239
0.00247239
0.00221234
0.00183672
0.00143901
0.00113391
0.000919871
0.000772747
0.00066653
0.000601397
0.00059215
0.000633898
0.000688291
0.000728083
0.000748123
0.000753387
0.000745601
0.000724437
0.000690092
0.00064561
0.000606446
0.000597372
0.000620799
0.000658365
0.000707786
0.000800319
0.000950552
0.00116914
0.00145096
0.00174691
0.00191409
0.00186774
0.00123836
0.00107087
0.00262717
0.00381428
0.00514058
0.00214021
0.0024617
0.00292767
0.0032316
0.0032594
0.00306127
0.00256262
0.002076
0.00166653
0.0013128
0.00101524
0.000800784
0.000647861
0.000568433
0.000572684
0.000626266
0.00066813
0.000684057
0.000686223
0.000675058
0.000646335
0.000597821
0.000543299
0.000517526
0.000540318
0.000598736
0.000678416
0.000770767
0.00085253
0.000959536
0.001118
0.00135477
0.00159011
0.00167499
0.00149978
0.00116593
0.000879677
)
;

boundaryField
{
    floor
    {
        Cmu             0.09;
        kappa           0.41;
        E               9.8;
        type            epsilonWallFunction;
        value           nonuniform List<scalar> 
29
(
0.000593653
9.54601e-05
0.000200875
0.000279377
0.000298785
0.000293363
0.000250301
0.000176052
0.000119033
7.92635e-05
5.46903e-05
4.16078e-05
3.55476e-05
3.32393e-05
3.32506e-05
3.63472e-05
4.68484e-05
6.79042e-05
9.77129e-05
7.21423e-05
7.21423e-05
0.000160147
0.00027316
0.000496453
0.000593653
9.54601e-05
0.000240131
0.000665372
0.00110576
)
;
    }
    ceiling
    {
        Cmu             0.09;
        kappa           0.41;
        E               9.8;
        type            epsilonWallFunction;
        value           nonuniform List<scalar> 
43
(
0.00262717
0.00381428
0.00514058
0.00214021
0.0024617
0.00292767
0.0032316
0.0032594
0.00306127
0.00256262
0.002076
0.00166653
0.0013128
0.00101524
0.000800784
0.000647861
0.000568433
0.000572684
0.000626266
0.00066813
0.000684057
0.000686223
0.000675058
0.000646335
0.000597821
0.000543299
0.000517526
0.000540318
0.000598736
0.000678416
0.000770767
0.00085253
0.000959536
0.001118
0.00135477
0.00159011
0.00167499
0.00149978
0.00116593
0.000879677
0.0393181
0.0638514
0.0191841
)
;
    }
    sWall
    {
        Cmu             0.09;
        kappa           0.41;
        E               9.8;
        type            epsilonWallFunction;
        value           uniform 0.00262717;
    }
    nWall
    {
        Cmu             0.09;
        kappa           0.41;
        E               9.8;
        type            epsilonWallFunction;
        value           nonuniform List<scalar> 6(0.000486972 0.00104052 0.00170067 0.000996694 0.00107087 0.000879677);
    }
    sideWalls
    {
        type            empty;
    }
    glass1
    {
        Cmu             0.09;
        kappa           0.41;
        E               9.8;
        type            epsilonWallFunction;
        value           nonuniform List<scalar> 9(0.000939234 0.00242872 0.00372452 0.0038326 0.0087196 0.019804 0.0246571 0.0306118 0.0393181);
    }
    glass2
    {
        Cmu             0.09;
        kappa           0.41;
        E               9.8;
        type            epsilonWallFunction;
        value           nonuniform List<scalar> 2(0.00208904 0.00169979);
    }
    sun
    {
        Cmu             0.09;
        kappa           0.41;
        E               9.8;
        type            epsilonWallFunction;
        value           nonuniform List<scalar> 
14
(
0.000939234
0.00129142
0.00130379
0.00132433
0.0012636
0.0011787
0.00112026
0.00107057
0.001022
0.000968043
0.00090645
0.000835826
0.000756509
0.000674157
)
;
    }
    heatsource1
    {
        Cmu             0.09;
        kappa           0.41;
        E               9.8;
        type            epsilonWallFunction;
        value           nonuniform List<scalar> 3(0.000789078 0.000666532 0.000486972);
    }
    heatsource2
    {
        Cmu             0.09;
        kappa           0.41;
        E               9.8;
        type            epsilonWallFunction;
        value           nonuniform List<scalar> 4(0.000624286 0.000297883 0.000297883 0.000825405);
    }
    Table_master
    {
        Cmu             0.09;
        kappa           0.41;
        E               9.8;
        type            epsilonWallFunction;
        value           nonuniform List<scalar> 9(0.000405855 0.000187767 0.000101891 6.31601e-05 4.51433e-05 3.71623e-05 3.43158e-05 3.55015e-05 5.05866e-05);
    }
    Table_slave
    {
        Cmu             0.09;
        kappa           0.41;
        E               9.8;
        type            epsilonWallFunction;
        value           nonuniform List<scalar> 9(0.000509041 0.000414006 0.000420191 0.000455897 0.000500564 0.00054594 0.000581311 0.000590218 0.00055586);
    }
    inlet
    {
        type            turbulentMixingLengthDissipationRateInlet;
        mixingLength    0.01;
        phi             phi;
        k               k;
        value           uniform 3.77336e-06;
    }
    outlet
    {
        type            zeroGradient;
    }
}


// ************************************************************************* //
