/*--------------------------------*- C++ -*----------------------------------*\
  =========                 |
  \\      /  F ield         | OpenFOAM: The Open Source CFD Toolbox
   \\    /   O peration     | Website:  https://openfoam.org
    \\  /    A nd           | Version:  6
     \\/     M anipulation  |
\*---------------------------------------------------------------------------*/
FoamFile
{
    version     2.0;
    format      ascii;
    class       volScalarField;
    location    "30";
    object      nut;
}
// * * * * * * * * * * * * * * * * * * * * * * * * * * * * * * * * * * * * * //

dimensions      [0 2 -1 0 0 0 0];

internalField   nonuniform List<scalar> 
459
(
0.00138442
0.00153941
0.00154438
0.00155236
0.00152804
0.00149278
0.00146747
0.00144531
0.00142304
0.00139751
0.00136723
0.00133081
0.00128738
0.00123896
0.00118765
0.000645774
0.000827457
0.000923639
0.000944603
0.000938944
0.000890674
0.000792278
0.000695522
0.000607438
0.000536707
0.000489797
0.000464588
0.000454185
0.000454151
0.000467725
0.000508833
0.000575777
0.00065027
0.000587987
0.00190004
0.00652592
0.00736701
0.00810671
0.00829
0.00816564
0.00792975
0.00776056
0.00769008
0.0076693
0.0076455
0.00750818
0.00701321
0.0058095
0.00354946
0.00120764
0.000944145
0.000878516
0.00290179
0.00450503
0.0052773
0.00518302
0.00428295
0.002869
0.00215994
0.00168623
0.00138958
0.00122206
0.0011384
0.00110549
0.001113
0.00119069
0.0015128
0.0020583
0.00253881
0.000767147
0.00219068
0.0081595
0.00910994
0.0105284
0.0108718
0.0106941
0.0104028
0.01014
0.00997303
0.00993081
0.0100465
0.0102836
0.0102013
0.00933911
0.00733513
0.00434665
0.00132563
0.00123374
0.00519685
0.00735306
0.00799634
0.00727842
0.00494228
0.00104632
0.000809472
0.000660374
0.000563066
0.000503316
0.000471551
0.000459051
0.000464145
0.00052198
0.00128821
0.00231821
0.00323997
0.000916519
0.0022114
0.00585904
0.00717023
0.00932917
0.0106038
0.0110146
0.0110155
0.0108954
0.0108075
0.0105851
0.0104561
0.0109335
0.0114421
0.0113781
0.0101845
0.00760169
0.00402707
0.00146139
0.00606087
0.00856834
0.00980309
0.00981039
0.00843421
0.00494341
0.00112804
0.00105306
0.00105836
0.00108754
0.00112192
0.00115478
0.00117911
0.00118499
0.00116136
0.00165586
0.00253113
0.00352068
0.00111827
0.00291092
0.00351262
0.00376673
0.00435737
0.00565341
0.00715943
0.00846331
0.00940311
0.00994571
0.0101419
0.010274
0.01086
0.0116898
0.0123538
0.0122426
0.0112623
0.0097893
0.00860988
0.0100988
0.0111561
0.0115666
0.0113113
0.010343
0.00870494
0.00702936
0.00681461
0.00682261
0.00687136
0.00690582
0.00688842
0.00678885
0.0065939
0.00630302
0.00582376
0.00540389
0.0049355
0.0028985
0.00130503
0.00123383
0.0011115
0.0038248
0.00473073
0.00469961
0.00452916
0.00482417
0.00568519
0.00685369
0.00802015
0.00896088
0.00959173
0.00998528
0.0104439
0.0114471
0.0124807
0.0129263
0.0127442
0.0122871
0.0119488
0.0122461
0.0125217
0.0125549
0.0122723
0.011672
0.010868
0.0101511
0.00985318
0.0097163
0.00960588
0.00945006
0.00919174
0.00882649
0.00841532
0.00804906
0.00773452
0.00729604
0.00663589
0.00537718
0.00427006
0.00408528
0.00143198
0.00411455
0.00592341
0.00621885
0.00541219
0.00524464
0.00564912
0.00651489
0.00756366
0.00852945
0.00926939
0.00980981
0.0103586
0.0111752
0.0121499
0.0126534
0.0126471
0.0125285
0.0125083
0.0126308
0.0127231
0.0126779
0.0124539
0.0120599
0.0115659
0.0110922
0.0107272
0.0104259
0.0101383
0.00979041
0.00932437
0.00877454
0.00825886
0.00790392
0.00777847
0.0077896
0.00749258
0.00689107
0.00613729
0.0052853
0.00168726
0.00442214
0.00611756
0.00718224
0.00619271
0.00582664
0.00602786
0.00672027
0.00762933
0.0085129
0.00923491
0.00981118
0.0103834
0.0110489
0.0116224
0.011738
0.0115161
0.0114137
0.0115542
0.0117817
0.0119313
0.0119385
0.0117954
0.0115118
0.0111184
0.0106655
0.0102048
0.00978057
0.00941632
0.00904004
0.00855403
0.00800359
0.00753315
0.0072705
0.00730383
0.0076134
0.00784617
0.00777206
0.00704955
0.00660901
0.00180843
0.00480695
0.00565008
0.00837745
0.00648546
0.00638446
0.0067808
0.00723367
0.00797413
0.0087819
0.00941414
0.00992601
0.0103763
0.010752
0.0107869
0.0102778
0.00964346
0.00942818
0.00967999
0.0100804
0.0103527
0.0104379
0.0103686
0.0101553
0.0097954
0.00930517
0.00875985
0.00831109
0.00807687
0.00792937
0.00760536
0.00706841
0.00647172
0.00591517
0.00542884
0.00500236
0.00459451
0.00406328
0.00345472
0.00301092
0.00168778
0.0109816
0.00640975
0.00637718
0.00757347
0.00795308
0.00849105
0.00908106
0.00956031
0.00984979
0.00993835
0.00980483
0.00922966
0.00816448
0.00723626
0.00695576
0.00731756
0.00790879
0.00832309
0.00846824
0.00845984
0.00831634
0.00799121
0.00746201
0.00684873
0.0064387
0.0064672
0.0067784
0.00687444
0.00653035
0.00604053
0.00561292
0.00526932
0.00491591
0.00445151
0.00382381
0.00310311
0.00241816
0.00141184
0.00378405
0.00428675
0.00650469
0.00735914
0.00782189
0.00819506
0.00846487
0.00858344
0.00843017
0.00803364
0.00746641
0.00658943
0.00542294
0.00459939
0.0044355
0.00491894
0.00568434
0.00623358
0.00644096
0.00649477
0.00642063
0.00614312
0.00560948
0.00495761
0.00453501
0.00461005
0.0050822
0.00546479
0.00538697
0.00523006
0.00511933
0.00507899
0.00505422
0.00495665
0.00465379
0.00411368
0.00326098
0.00144598
0.00195029
0.00220843
0.00243945
0.0018217
0.00190874
0.00202231
0.00209002
0.00209601
0.00205267
0.00193449
0.00180348
0.00167628
0.00154836
0.00142125
0.00131311
0.00122325
0.00117047
0.00117299
0.00120869
0.00123534
0.00124518
0.00124651
0.00123967
0.00122171
0.00119014
0.0011527
0.00113442
0.00115116
0.00119138
0.00124209
0.00129574
0.00133988
0.00139378
0.00146675
0.00156379
0.0016498
0.00167865
0.00161796
0.00148764
0.00135431
)
;

boundaryField
{
    floor
    {
        type            nutkWallFunction;
        Cmu             0.09;
        kappa           0.41;
        E               9.8;
        value           nonuniform List<scalar> 
29
(
0.000142606
7.80812e-05
0.000100249
0.000111741
0.000114222
0.000113544
0.000107795
9.59692e-05
8.41744e-05
7.32714e-05
6.43891e-05
5.84309e-05
5.52074e-05
5.38754e-05
5.38793e-05
5.56429e-05
6.09325e-05
6.94166e-05
7.86887e-05
7.09047e-05
7.09047e-05
9.29733e-05
0.000110915
0.000134633
0.000142606
7.80812e-05
0.000106338
0.000147906
0.0001738
)
;
    }
    ceiling
    {
        type            nutkWallFunction;
        Cmu             0.09;
        kappa           0.41;
        E               9.8;
        value           nonuniform List<scalar> 
43
(
0.000228009
0.000256015
0.000280787
0.000213894
0.000223446
0.000235842
0.000243196
0.000243843
0.000239136
0.000226257
0.000211865
0.000197783
0.000183499
0.000169196
0.000156924
0.000146662
0.000140631
0.000140956
0.000145057
0.000148096
0.000149217
0.000149368
0.000148587
0.000146534
0.000142916
0.000138598
0.000136459
0.000138371
0.000143005
0.000148835
0.000155006
0.000160053
0.000166172
0.000174409
0.000185301
0.000194876
0.000198082
0.00019133
0.000176743
0.000161666
0.000523853
0.000607101
0.000420784
)
;
    }
    sWall
    {
        type            nutkWallFunction;
        Cmu             0.09;
        kappa           0.41;
        E               9.8;
        value           uniform 0.000228067;
    }
    nWall
    {
        type            nutkWallFunction;
        Cmu             0.09;
        kappa           0.41;
        E               9.8;
        value           nonuniform List<scalar> 6(0.00013382 0.000170502 0.000199042 0.00016821 0.000172072 0.000161681);
    }
    sideWalls
    {
        type            empty;
    }
    glass1
    {
        type            nutkWallFunction;
        Cmu             0.09;
        kappa           0.41;
        E               9.8;
        value           nonuniform List<scalar> 9(0.000165284 0.000222844 0.000254537 0.000256808 0.000331049 0.000425595 0.000455035 0.000486051 0.000524549);
    }
    glass2
    {
        type            nutkWallFunction;
        Cmu             0.09;
        kappa           0.41;
        E               9.8;
        value           nonuniform List<scalar> 2(0.000212435 0.000199141);
    }
    sun
    {
        type            nutkWallFunction;
        Cmu             0.09;
        kappa           0.41;
        E               9.8;
        value           nonuniform List<scalar> 
14
(
0.000165076
0.000182541
0.000183091
0.000183992
0.000181284
0.000177344
0.000174513
0.000172024
0.000169514
0.000166626
0.00016319
0.000159042
0.000154079
0.000148522
)
;
    }
    heatsource1
    {
        type            nutkWallFunction;
        Cmu             0.09;
        kappa           0.41;
        E               9.8;
        value           nonuniform List<scalar> 3(0.000156136 0.000147964 0.000133807);
    }
    heatsource2
    {
        type            nutkWallFunction;
        Cmu             0.09;
        kappa           0.41;
        E               9.8;
        value           nonuniform List<scalar> 4(0.000144912 0.000114121 0.000114121 0.000158411);
    }
    Table_master
    {
        type            nutkWallFunction;
        Cmu             0.09;
        kappa           0.41;
        E               9.8;
        value           nonuniform List<scalar> 9(0.000126175 9.8044e-05 7.98525e-05 6.77264e-05 6.01669e-05 5.61123e-05 5.45145e-05 5.51848e-05 6.26199e-05);
    }
    Table_slave
    {
        type            nutkWallFunction;
        Cmu             0.09;
        kappa           0.41;
        E               9.8;
        value           nonuniform List<scalar> 9(0.000135727 0.000126983 0.000127595 0.000130999 0.000135001 0.000138816 0.000141636 0.000142325 0.00013961);
    }
    inlet
    {
        type            calculated;
        value           uniform 3.3541e-05;
    }
    outlet
    {
        type            calculated;
        value           nonuniform List<scalar> 2(0.00195029 0.00220843);
    }
}


// ************************************************************************* //
