/*--------------------------------*- C++ -*----------------------------------*\
  =========                 |
  \\      /  F ield         | OpenFOAM: The Open Source CFD Toolbox
   \\    /   O peration     | Website:  https://openfoam.org
    \\  /    A nd           | Version:  6
     \\/     M anipulation  |
\*---------------------------------------------------------------------------*/
FoamFile
{
    version     2.0;
    format      ascii;
    class       surfaceScalarField;
    location    "30";
    object      phi;
}
// * * * * * * * * * * * * * * * * * * * * * * * * * * * * * * * * * * * * * //

dimensions      [1 0 -1 0 0 0 0];

internalField   nonuniform List<scalar> 
852
(
-0.00317696
0.00323573
-0.00414252
0.000965589
-0.00440542
0.000262923
-0.00451465
0.000109255
-0.00458126
6.66304e-05
-0.00458771
6.46404e-06
-0.00451338
-7.43207e-05
-0.00434796
-0.000165408
-0.00408284
-0.00026509
-0.0037188
-0.000364006
-0.00326007
-0.000458685
-0.00270939
-0.000550629
-0.00205703
-0.000652319
-0.00122551
-0.000831471
-0.00122288
-0.000289867
0.000293921
1.52928e-05
-0.000305133
0.000390869
-0.000375557
0.000696834
-0.000305951
0.000978798
-0.000281952
0.00119139
-0.000212581
0.00122493
-3.35403e-05
0.00116179
6.3145e-05
0.00108784
7.39635e-05
0.00103265
5.52089e-05
0.000997927
3.47418e-05
0.000977966
1.99877e-05
0.000964985
1.30107e-05
0.000947866
1.71489e-05
0.000903148
4.47508e-05
0.000836236
6.69482e-05
0.000771882
6.43901e-05
0.000641957
0.000129955
0.000646284
-0.00221448
0.00560553
-0.00287198
0.00162317
-0.00285164
0.000242689
-0.00286881
0.000126522
-0.00307074
0.000268616
-0.00331187
0.000247627
-0.00347014
8.39668e-05
-0.00349689
-0.000138655
-0.00339533
-0.000366632
-0.00318862
-0.000570682
-0.00289588
-0.000751384
-0.0025277
-0.00091874
-0.00210162
-0.00107835
-0.0016857
-0.00124734
-0.00156976
-0.00133877
-0.000520929
-0.00104884
-0.000520949
0.000678392
-0.000374687
0.000588577
-0.000215292
0.000511493
-0.000298454
0.000600143
-0.000394587
0.000782166
-0.000463966
0.000971011
-0.000401419
0.00100189
-6.44171e-05
0.000987028
7.80196e-05
0.000981658
7.93462e-05
0.000981822
5.50616e-05
0.000983434
3.31467e-05
0.00098509
1.8348e-05
0.000985853
1.22608e-05
0.00098635
1.66636e-05
0.000955697
7.54148e-05
0.00085782
0.000164837
0.00065057
0.000271653
0.000359916
0.000420623
0.00101697
-0.00138513
0.0072304
-0.00111737
0.00135559
-0.000380381
-0.000493943
-0.000236713
-1.6905e-05
-0.00061213
0.000644174
-0.00118422
0.00081979
-0.00174491
0.000644696
-0.00216117
0.000277637
-0.00235592
-0.000171875
-0.00238033
-0.000546239
-0.00228506
-0.000846598
-0.00209345
-0.00111027
-0.00185071
-0.001321
-0.00160664
-0.00149133
-0.00137558
-0.00156978
-0.000921517
-0.00150286
-0.00144243
7.82663e-05
-0.000440198
0.000153319
-0.000290333
0.000197311
-0.000342435
0.000262319
-0.000459586
0.000386424
-0.000588064
0.000754125
-0.000769113
0.00068987
0.000768053
0.000847565
0.000902792
0.000936104
0.000954615
0.000967037
0.00098386
0.00105943
0.00104703
0.000177244
0.000792342
0.000526341
0.00032652
0.000886452
0.00135928
0.00244405
0.00511143
0.00409838
-0.000298228
0.0045597
-0.000954819
0.0041362
0.000406984
0.0033153
0.00146537
0.00232298
0.0018123
0.00127108
0.0016967
0.000243074
0.00130569
-0.000622544
0.000693799
-0.00117545
6.69017e-06
-0.00141488
-0.000607087
-0.00147823
-0.00104681
-0.00144994
-0.00134917
-0.00138264
-0.00155853
-0.00130703
-0.00164532
-0.00123167
-0.00157817
-0.00140833
-0.00126575
-0.00065766
-0.000737395
-0.000469167
-0.000628679
-0.000286231
-0.000473258
-0.000176682
-0.000451975
-0.000147839
-0.000488421
-0.000211642
-0.000524253
-0.00050127
-0.000479477
-0.00024143
-0.000259986
-1.25077e-05
-0.000229067
0.000246352
-0.000258998
0.000554254
-0.000308035
0.000907831
-0.000353702
0.00128985
-0.00038214
0.0016635
-0.000373761
0.00195516
-0.000291779
0.00204327
-8.8232e-05
0.00191104
0.000309497
0.00159243
0.000844968
0.00104184
0.00143705
0.00242017
0.00977868
-0.00430303
0.0128615
-0.0033809
0.0124937
-0.000586799
0.0110729
0.00182803
0.00925294
0.00328552
0.00728106
0.00378436
0.00536135
0.00361653
0.00363811
0.00302898
0.0021281
0.00220383
0.00082943
0.00130543
-0.000140315
0.000362793
-0.000680673
-0.00050629
-0.000914688
-0.001115
-0.00101268
-0.00146042
-0.00104637
-0.00161154
-0.00105044
-0.00157404
-0.000977089
-0.00133906
-0.000726315
-0.000988146
-0.000574718
-0.000780259
-0.00043789
-0.000610075
-0.000356423
-0.000533431
-0.000333732
-0.000511103
-0.000356573
-0.000501403
-0.000369104
-0.000466935
-0.000226063
-0.000403013
-3.05524e-05
-0.000424558
0.000201189
-0.000490711
0.000465438
-0.000572244
0.000757269
-0.000645481
0.00107016
-0.000694966
0.00139145
-0.000694978
0.00169504
-0.0005953
0.00193146
-0.000324606
0.00207266
0.000168336
0.00211865
0.000799003
0.00212134
0.00143437
0.00282285
0.00171868
0.00190152
0.00092114
0.00112698
0.000774346
0.00118131
0.00729496
-0.011199
0.00957437
-0.00566004
0.00971591
-0.000728079
0.0090506
0.00249361
0.00814191
0.00419448
0.00695471
0.0049718
0.00561715
0.00495427
0.00428323
0.00436302
0.00303496
0.00345216
0.00192413
0.00241633
0.000941388
0.00134568
0.000156899
0.000278435
-0.00032949
-0.000628395
-0.000584264
-0.00120547
-0.000710584
-0.0014851
-0.000760142
-0.00152441
-0.000732578
-0.00136657
-0.000623157
-0.00109754
-0.000534512
-0.000868885
-0.000456626
-0.000687946
-0.00040978
-0.000580266
-0.000393683
-0.000527189
-0.000390379
-0.000504695
-0.000360438
-0.000496861
-0.000256273
-0.000507159
-0.000108091
-0.000572711
7.15222e-05
-0.000670284
0.000270725
-0.000771389
0.000482499
-0.000857177
0.000709197
-0.000921568
0.000959449
-0.000945123
0.00123861
-0.000874367
0.00154209
-0.000628004
0.00185472
-0.000144263
0.00216552
0.000488225
0.00253119
0.00106871
0.0028962
0.00135367
0.00262956
0.00118778
0.00173287
0.00167104
0.00296923
0.00153982
-0.0122774
0.00266861
-0.0067885
0.0039715
-0.00203061
0.00411192
0.00235355
0.00426387
0.00404288
0.00408157
0.0051544
0.00368374
0.00535234
0.00313381
0.00491313
0.00250309
0.00408299
0.00185592
0.00306364
0.00123779
0.00196402
0.000655078
0.000861478
0.000166375
-0.00013936
-0.000165359
-0.000873489
-0.000359437
-0.00129086
-0.000454035
-0.00142971
-0.000477808
-0.00134274
-0.000451128
-0.00112418
-0.00042513
-0.000894859
-0.000405402
-0.000707659
-0.000400307
-0.000585348
-0.000407775
-0.000519708
-0.000414527
-0.000497929
-0.00039787
-0.0005135
-0.0003365
-0.000568504
-0.000241378
-0.000667795
-0.000128269
-0.000783338
-1.77438e-05
-0.000881833
7.79501e-05
-0.000952757
0.000166094
-0.00100957
0.000273388
-0.00105227
0.000433287
-0.00103414
0.000675767
-0.000870392
0.00102097
-0.000489417
0.0014288
8.04085e-05
0.00186918
0.000628327
0.00232871
0.000894128
0.00259794
0.00091853
0.00229343
0.00197553
0.00531962
-0.00265026
-0.00910517
-0.00348665
-0.00595168
-0.00192942
-0.00358739
-0.000890778
0.00131531
0.000171122
0.00298133
0.000934371
0.00439146
0.00135654
0.00493042
0.00150532
0.00476455
0.00147102
0.00411747
0.00131862
0.00321626
0.00110039
0.00218259
0.00082578
0.00113653
0.00050231
0.000184547
0.000202956
-0.000573795
-1.76373e-05
-0.00107004
-0.000147982
-0.00129923
-0.00021082
-0.00127982
-0.000242942
-0.00109201
-0.000277967
-0.000859806
-0.00031799
-0.000667617
-0.000361857
-0.000541466
-0.000407364
-0.000474187
-0.000447281
-0.000457995
-0.00046847
-0.000492289
-0.000458271
-0.000578669
-0.000421639
-0.000704377
-0.000382662
-0.000822238
-0.000382035
-0.000882346
-0.000448997
-0.000885638
-0.000578353
-0.000880026
-0.000736009
-0.000894425
-0.000870378
-0.000899623
-0.000917841
-0.000822842
-0.000824632
-0.00058259
-0.000583485
-0.000160747
-0.000304525
0.000349346
-4.15588e-05
0.000631135
0.000224311
0.000652626
6.52448e-05
0.00213455
0.00571792
-0.00852324
-0.0144697
-0.00951599
-0.00854068
-0.00546203
-0.00273827
-0.00320822
0.000727858
-0.00173323
0.00291678
-0.000692233
0.00388969
2.67395e-05
0.00404581
0.00048168
0.00366278
0.000750741
0.00294754
0.000891123
0.00204268
0.000887037
0.00114116
0.000741777
0.00033033
0.000516233
-0.000347831
0.000302545
-0.000856063
0.000155514
-0.00115202
6.91851e-05
-0.00119339
-7.68656e-06
-0.00101509
-0.000105582
-0.000761878
-0.000211518
-0.00056166
-0.000310771
-0.000442196
-0.000403863
-0.000381079
-0.000491798
-0.00037004
-0.000567475
-0.000416585
-0.000616357
-0.000529746
-0.000634954
-0.000685714
-0.000659331
-0.00079776
-0.000765511
-0.000776016
-0.00101555
-0.000635394
-0.00142623
-0.000469114
-0.00199205
-0.000328389
-0.00270472
-0.00018681
-0.00353419
6.7017e-06
-0.00443556
0.000318811
-0.00538413
0.000787837
-0.00642999
0.0013952
-0.00781935
0.0020205
-0.00950014
0.00233343
-0.00878411
0.00141855
-0.00269275
-0.00812783
0.000282908
-0.00659299
-0.00427269
-0.00495835
-0.00090641
-0.00348721
0.00144597
-0.00218813
0.00259093
-0.00109229
0.00295029
-0.000247949
0.0028188
0.00038097
0.00231908
0.000819305
0.00160493
0.00102739
0.000933714
0.00101429
0.000344013
0.000843515
-0.000176563
0.000636976
-0.000649162
0.000473124
-0.000987935
0.000364004
-0.00108414
0.000242918
-0.000893925
7.02188e-05
-0.000589138
-0.000110549
-0.000380867
-0.0002647
-0.000288026
-0.000404269
-0.000241491
-0.000544415
-0.000229871
-0.000684057
-0.000276911
-0.000796821
-0.00041693
-0.000857006
-0.000625446
-0.000903475
-0.000751164
-0.00103091
-0.000648402
-0.00129723
-0.000368829
-0.00168284
-8.32376e-05
-0.00211177
0.000100784
-0.00255403
0.00025564
-0.00299202
0.000444824
-0.00340872
0.000735602
-0.00378171
0.00116088
-0.00404032
0.00165388
-0.00412659
0.00210684
-0.00382963
0.00203657
-0.0022157
-0.00019525
-0.00481688
-0.00181691
0.00210736
-0.00460389
-0.00148522
-0.00508286
-0.000426997
-0.0043164
0.000679922
-0.00307082
0.00134576
-0.0017421
0.001622
-0.000570391
0.00164758
0.000376373
0.00137288
0.00105755
0.000924419
0.00143435
0.000557599
0.00153237
0.000246639
0.00142875
-7.23834e-05
0.00120494
-0.000424909
0.000924244
-0.000706924
0.000654055
-0.000813759
0.000400401
-0.000640172
0.000140265
-0.000328951
-8.92704e-05
-0.000151303
-0.000265653
-0.000111622
-0.000416021
-9.11018e-05
-0.000566681
-7.91859e-05
-0.000729879
-0.000113676
-0.00089826
-0.000248486
-0.0010565
-0.000467102
-0.00121434
-0.000593174
-0.00138199
-0.000480549
-0.00154487
-0.000205694
-0.00169873
7.08949e-05
-0.00181625
0.00021856
-0.00186125
0.000300871
-0.00182785
0.000411603
-0.0017027
0.000610585
-0.00147364
0.000931924
-0.00100618
0.00118652
-0.000146372
0.00124714
0.00114303
0.000747297
0.00151422
-0.000566301
-0.00320295
-0.00353686
-0.00594395
-0.00382508
-0.00529746
-0.00571244
-0.00502123
-0.00366447
-0.00203125
-0.000371721
0.00101481
0.00195491
0.00253019
0.00279663
0.00274633
0.00234574
0.00166525
0.000879409
0.000267429
-3.38232e-05
-0.000157833
-0.000242316
-0.000306301
-0.000358269
-0.000444456
-0.000664983
-0.00110362
-0.0016683
-0.00212111
-0.00230026
-0.0022041
-0.00196157
-0.00163779
-0.00120438
-0.000573187
0.000377996
0.0015828
0.00284784
0.00361355
0.00306698
)
;

boundaryField
{
    floor
    {
        type            calculated;
        value           nonuniform List<scalar> 
29
(
0
0
0
0
0
0
0
0
0
0
0
0
0
0
0
0
0
0
0
0
-4.3065e-06
-1.07532e-05
-1.57692e-05
-1.90274e-05
-2.60239e-06
-4.02325e-06
-9.7652e-06
-1.27431e-05
-1.32575e-05
)
;
    }
    ceiling
    {
        type            calculated;
        value           nonuniform List<scalar> 
43
(
-1.2798e-05
-1.2088e-05
-1.09344e-05
-1.2285e-05
-1.14729e-05
-1.07507e-05
-1.0459e-05
-1.06679e-05
-1.13448e-05
-1.30146e-05
-1.49752e-05
-1.6967e-05
-1.91149e-05
-2.14398e-05
-2.37568e-05
-2.59983e-05
-2.76445e-05
-2.8073e-05
-2.76495e-05
-2.726e-05
-2.7109e-05
-2.70864e-05
-2.71856e-05
-2.74478e-05
-2.7896e-05
-2.8351e-05
-2.83033e-05
-2.7501e-05
-2.62946e-05
-2.49918e-05
-2.37175e-05
-2.26623e-05
-2.15874e-05
-2.04196e-05
-1.91167e-05
-1.8141e-05
-1.7766e-05
-1.8261e-05
-1.95767e-05
-2.06733e-05
-3.88812e-06
-4.73717e-06
-7.0182e-06
)
;
    }
    sWall
    {
        type            calculated;
        value           uniform -0.000214928;
    }
    nWall
    {
        type            calculated;
        value           nonuniform List<scalar> 6(-5.44913e-05 -5.50287e-05 -5.69382e-05 -9.1406e-05 -9.95547e-05 -0.00011513);
    }
    sideWalls
    {
        type            empty;
        value           nonuniform 0();
    }
    glass1
    {
        type            calculated;
        value           nonuniform List<scalar> 9(-5.8775e-05 -0.000155303 -0.000239672 -0.00032495 -0.000364046 -0.000398616 -0.000461013 -0.000521593 -0.000577607);
    }
    glass2
    {
        type            calculated;
        value           nonuniform List<scalar> 2(-0.000333074 -0.000373389);
    }
    sun
    {
        type            calculated;
        value           uniform 0;
    }
    heatsource1
    {
        type            calculated;
        value           nonuniform List<scalar> 3(2.05509e-07 2.05962e-07 2.06336e-07);
    }
    heatsource2
    {
        type            calculated;
        value           nonuniform List<scalar> 4(5.15312e-08 5.17006e-08 0 0);
    }
    Table_master
    {
        type            calculated;
        value           nonuniform List<scalar> 9(-1.54884e-07 -1.54987e-07 -1.54987e-07 -1.54986e-07 -1.54986e-07 -1.54986e-07 -1.54984e-07 -1.54976e-07 -1.54929e-07);
    }
    Table_slave
    {
        type            calculated;
        value           nonuniform List<scalar> 9(1.54884e-07 1.55053e-07 1.55046e-07 1.54941e-07 1.54815e-07 1.54679e-07 1.54548e-07 1.54448e-07 1.54412e-07);
    }
    inlet
    {
        type            calculated;
        value           uniform -0.000695251;
    }
    outlet
    {
        type            calculated;
        value           nonuniform List<scalar> 2(0.0037652 0.00241976);
    }
}


// ************************************************************************* //
