/*--------------------------------*- C++ -*----------------------------------*\
  =========                 |
  \\      /  F ield         | OpenFOAM: The Open Source CFD Toolbox
   \\    /   O peration     | Website:  https://openfoam.org
    \\  /    A nd           | Version:  6
     \\/     M anipulation  |
\*---------------------------------------------------------------------------*/
FoamFile
{
    version     2.0;
    format      ascii;
    class       volScalarField;
    location    "30";
    object      T;
}
// * * * * * * * * * * * * * * * * * * * * * * * * * * * * * * * * * * * * * //

dimensions      [0 0 0 1 0 0 0];

internalField   nonuniform List<scalar> 
459
(
302.203
301.921
301.89
301.867
301.843
301.82
301.8
301.781
301.761
301.742
301.723
301.705
301.691
301.68
301.675
301.722
301.675
301.658
301.653
301.651
301.653
301.658
301.664
301.669
301.673
301.676
301.677
301.678
301.678
301.677
301.675
301.673
301.676
301.707
302.423
302.092
302.07
302.043
302.004
301.963
301.923
301.887
301.852
301.814
301.776
301.74
301.708
301.681
301.658
301.641
301.628
301.688
301.658
301.641
301.633
301.63
301.629
301.631
301.633
301.634
301.634
301.633
301.632
301.632
301.632
301.634
301.636
301.64
301.651
301.692
302.672
302.315
302.341
302.291
302.228
302.163
302.102
302.04
301.98
301.92
301.858
301.797
301.744
301.702
301.672
301.651
301.638
301.648
301.634
301.628
301.625
301.623
301.621
301.622
301.622
301.621
301.62
301.619
301.618
301.618
301.618
301.62
301.627
301.634
301.645
301.682
303.006
302.73
302.711
302.641
302.544
302.448
302.362
302.281
302.178
302.072
301.976
301.874
301.791
301.728
301.685
301.657
301.641
301.637
301.628
301.625
301.622
301.62
301.619
301.617
301.615
301.614
301.616
301.619
301.624
301.631
301.639
301.646
301.65
301.65
301.648
301.65
301.671
303.233
303.053
303.001
302.951
302.863
302.755
302.642
302.533
302.426
302.311
302.149
301.975
301.848
301.758
301.7
301.664
301.643
301.632
301.625
301.622
301.62
301.618
301.617
301.617
301.617
301.618
301.622
301.628
301.637
301.65
301.664
301.678
301.686
301.684
301.676
301.669
301.671
301.671
301.675
301.723
302.962
302.644
302.607
302.654
302.701
302.707
302.671
302.606
302.524
302.422
302.283
302.098
301.914
301.79
301.715
301.671
301.646
301.633
301.625
301.621
301.619
301.618
301.617
301.618
301.619
301.622
301.628
301.637
301.652
301.671
301.695
301.717
301.73
301.73
301.717
301.704
301.695
301.694
301.695
301.725
302.746
302.232
302.219
302.387
302.536
302.617
302.634
302.605
302.545
302.455
302.324
302.151
301.966
301.82
301.729
301.678
301.649
301.634
301.626
301.622
301.619
301.618
301.618
301.619
301.622
301.626
301.634
301.648
301.669
301.698
301.733
301.767
301.788
301.791
301.773
301.754
301.741
301.736
301.73
301.744
302.539
302.065
302.113
302.362
302.503
302.586
302.607
302.587
302.534
302.444
302.312
302.145
301.976
301.836
301.741
301.683
301.652
301.636
301.627
301.622
301.62
301.619
301.62
301.621
301.625
301.631
301.642
301.661
301.69
301.731
301.779
301.822
301.849
301.856
301.844
301.824
301.813
301.811
301.808
301.951
302.365
301.991
301.98
302.388
302.503
302.559
302.575
302.556
302.497
302.401
302.266
302.109
301.959
301.835
301.746
301.688
301.655
301.638
301.629
301.624
301.622
301.621
301.622
301.624
301.628
301.636
301.65
301.674
301.711
301.763
301.821
301.871
301.905
301.926
301.94
301.953
301.974
302.002
302.029
302.1
301.542
302.335
302.465
302.512
302.521
302.498
302.438
302.335
302.2
302.061
301.933
301.828
301.748
301.693
301.66
301.641
301.632
301.627
301.625
301.624
301.625
301.627
301.633
301.642
301.659
301.684
301.723
301.774
301.829
301.876
301.911
301.933
301.949
301.961
301.972
301.98
301.977
301.965
302.029
302.321
302.393
302.43
302.436
302.413
302.357
302.259
302.132
302.016
301.912
301.824
301.755
301.703
301.668
301.648
301.638
301.633
301.631
301.631
301.631
301.634
301.64
301.651
301.669
301.694
301.727
301.768
301.812
301.853
301.887
301.913
301.931
301.944
301.953
301.955
301.932
301.948
302.172
302.124
302.148
302.263
302.294
302.313
302.317
302.298
302.258
302.164
302.066
301.981
301.906
301.84
301.781
301.729
301.688
301.665
301.656
301.653
301.652
301.652
301.653
301.655
301.659
301.669
301.689
301.714
301.742
301.771
301.8
301.83
301.857
301.881
301.905
301.918
301.925
301.924
301.917
301.94
)
;

boundaryField
{
    floor
    {
        type            wallHeatTransfer;
        Tinf            uniform 305.2;
        alphaWall       uniform 0.24;
        value           nonuniform List<scalar> 
29
(
302.019
302.254
302.127
302.076
302.065
302.066
302.083
302.127
302.178
302.234
302.287
302.327
302.351
302.362
302.362
302.348
302.31
302.257
302.213
302.278
302.278
302.167
302.1
302.032
302.019
302.254
302.119
301.985
301.933
)
;
    }
    ceiling
    {
        type            wallHeatTransfer;
        Tinf            uniform 303.2;
        alphaWall       uniform 0.24;
        value           nonuniform List<scalar> 
43
(
302.24
302.188
302.206
302.329
302.355
302.37
302.372
302.355
302.317
302.233
302.145
302.072
302.009
301.955
301.909
301.869
301.838
301.816
301.805
301.8
301.798
301.798
301.799
301.802
301.809
301.822
301.841
301.863
301.884
301.906
301.928
301.952
301.973
301.991
302.007
302.015
302.02
302.022
302.022
302.052
302.391
302.024
302.073
)
;
    }
    sWall
    {
        type            wallHeatTransfer;
        Tinf            uniform 315.2;
        alphaWall       uniform 0.36;
        value           uniform 303.429;
    }
    nWall
    {
        type            wallHeatTransfer;
        Tinf            uniform 307.2;
        alphaWall       uniform 0.36;
        value           nonuniform List<scalar> 6(302.528 302.392 302.332 302.61 302.584 302.609);
    }
    sideWalls
    {
        type            empty;
    }
    glass1
    {
        type            wallHeatTransfer;
        Tinf            uniform 315.2;
        alphaWall       uniform 4.3;
        value           nonuniform List<scalar> 9(310.467 309.711 309.435 309.565 308.953 308.081 307.759 307.44 307.109);
    }
    glass2
    {
        type            wallHeatTransfer;
        Tinf            uniform 307.2;
        alphaWall       uniform 4.3;
        value           nonuniform List<scalar> 2(304.984 305.12);
    }
    sun
    {
        type            wallHeatTransfer;
        Tinf            uniform 305.2;
        alphaWall       uniform 0.24;
        value           nonuniform List<scalar> 
14
(
302.464
302.183
302.154
302.132
302.113
302.097
302.083
302.068
302.054
302.04
302.028
302.018
302.013
302.013
)
;
    }
    heatsource1
    {
        type            fixedGradient;
        gradient        uniform 0;
    }
    heatsource2
    {
        type            fixedGradient;
        gradient        uniform 0;
    }
    Table_master
    {
        type            zeroGradient;
    }
    Table_slave
    {
        type            zeroGradient;
    }
    inlet
    {
        type            fixedValue;
        value           uniform 290.15;
    }
    outlet
    {
        type            zeroGradient;
    }
}


// ************************************************************************* //
