/*--------------------------------*- C++ -*----------------------------------*\
  =========                 |
  \\      /  F ield         | OpenFOAM: The Open Source CFD Toolbox
   \\    /   O peration     | Website:  https://openfoam.org
    \\  /    A nd           | Version:  6
     \\/     M anipulation  |
\*---------------------------------------------------------------------------*/
FoamFile
{
    version     2.0;
    format      ascii;
    class       volVectorField;
    location    "30";
    object      U;
}
// * * * * * * * * * * * * * * * * * * * * * * * * * * * * * * * * * * * * * //

dimensions      [0 1 -1 0 0 0 0];

internalField   nonuniform List<vector> 
459
(
(0.0157251 0.092142 0)
(-0.176765 0.0236778 0)
(-0.184173 0.0044033 0)
(-0.19121 0.000397373 0)
(-0.195491 -0.00134445 0)
(-0.197502 -0.00329235 0)
(-0.195979 -0.00562246 0)
(-0.190732 -0.00830341 0)
(-0.181367 -0.011266 0)
(-0.167841 -0.0143293 0)
(-0.150111 -0.0175164 0)
(-0.127589 -0.0210915 0)
(-0.0997923 -0.0259096 0)
(-0.0716201 -0.0341067 0)
(-0.0652408 -0.0464662 0)
(0.0438844 0.00796982 0)
(-0.0128075 -0.00897746 0)
(0.00798998 -0.0136868 0)
(0.022774 -0.0117694 0)
(0.0355608 -0.010641 0)
(0.0466376 -0.0079754 0)
(0.0529064 -0.00241523 0)
(0.0523026 0.000820966 0)
(0.0485737 0.001674 0)
(0.0452348 0.00141969 0)
(0.0432518 0.000937108 0)
(0.0421964 0.000559611 0)
(0.0415858 0.000398811 0)
(0.0410306 0.000569118 0)
(0.0397344 0.00127963 0)
(0.0372973 0.00159228 0)
(0.0347283 0.000603825 0)
(0.0367817 0.00214408 0)
(-0.0209476 0.0159141 0)
(0.176163 0.186655 0)
(-0.150185 0.0573631 0)
(-0.122353 0.0127198 0)
(-0.120008 0.00632818 0)
(-0.126485 0.00624445 0)
(-0.137529 0.00293888 0)
(-0.146975 -0.00266958 0)
(-0.150679 -0.00904709 0)
(-0.14867 -0.0156448 0)
(-0.141849 -0.0218713 0)
(-0.130915 -0.0277613 0)
(-0.116279 -0.0334315 0)
(-0.0987999 -0.0391816 0)
(-0.0816238 -0.0462963 0)
(-0.0690638 -0.0531261 0)
(-0.0493066 -0.0413094 0)
(-0.0186956 -0.0230479 0)
(0.0989384 -0.00052163 0)
(0.0246915 -0.00695184 0)
(0.0181386 -0.0130496 0)
(0.0227245 -0.0156001 0)
(0.0290685 -0.01716 0)
(0.0369565 -0.0146951 0)
(0.0437609 -0.00212795 0)
(0.0438559 0.00353563 0)
(0.0423372 0.00430569 0)
(0.0418478 0.00343992 0)
(0.0419917 0.00245236 0)
(0.042158 0.00175846 0)
(0.0422595 0.00145073 0)
(0.0423134 0.00161082 0)
(0.0415084 0.00268267 0)
(0.0391904 0.0045896 0)
(0.0338707 0.00682891 0)
(0.0342705 0.0128945 0)
(-0.0667152 0.0345538 0)
(0.336424 0.267243 0)
(-0.134225 0.0432304 0)
(-0.0291809 -0.0198409 0)
(-0.00858796 0.00217682 0)
(-0.0149963 0.0212901 0)
(-0.0382584 0.0211037 0)
(-0.0638864 0.0105908 0)
(-0.0859385 -0.00349602 0)
(-0.0988339 -0.0166754 0)
(-0.102823 -0.0275989 0)
(-0.100809 -0.0371782 0)
(-0.0942674 -0.0457309 0)
(-0.0845922 -0.0532754 0)
(-0.0741495 -0.0602609 0)
(-0.0637571 -0.0641884 0)
(-0.0498871 -0.0590772 0)
(-0.0394587 -0.0550241 0)
(0.0663247 -0.021475 0)
(0.00250107 -0.0127121 0)
(0.00564197 -0.0138216 0)
(0.0097049 -0.0184295 0)
(0.0140116 -0.0231688 0)
(0.019267 -0.0262688 0)
(0.035128 -0.00893686 0)
(0.0345982 -0.00109252 0)
(0.0345954 -1.83373e-05 0)
(0.0371379 -0.000937936 0)
(0.0394194 -0.00198547 0)
(0.0406235 -0.00270025 0)
(0.041202 -0.00300696 0)
(0.0415976 -0.00278599 0)
(0.0421265 0.00166917 0)
(0.0463848 0.0114368 0)
(0.041995 0.0197079 0)
(0.0436626 0.0300372 0)
(-0.0917224 0.0533397 0)
(0.571459 0.357379 0)
(0.0826118 0.0796769 0)
(0.166843 -0.00545438 0)
(0.190698 0.0140723 0)
(0.166729 0.0415738 0)
(0.123273 0.0495684 0)
(0.0770944 0.0422945 0)
(0.0327191 0.02555 0)
(-0.0116533 0.000477753 0)
(-0.0427937 -0.0219893 0)
(-0.057083 -0.0372716 0)
(-0.0633689 -0.0497189 0)
(-0.0633495 -0.0595723 0)
(-0.0608415 -0.0669685 0)
(-0.0575172 -0.0700467 0)
(-0.0548224 -0.0659374 0)
(-0.0568263 -0.0497885 0)
(-0.0472697 0.00773336 0)
(-0.0198084 -0.0206674 0)
(-0.0166868 -0.0158908 0)
(-0.00962935 -0.0169891 0)
(-0.00634813 -0.0204224 0)
(-0.0069336 -0.0239617 0)
(-0.0134659 -0.0255126 0)
(-0.0198022 -0.00994016 0)
(-0.00718676 -0.00842094 0)
(0.00476756 -0.00962969 0)
(0.0171136 -0.0114951 0)
(0.0312005 -0.0131825 0)
(0.0468824 -0.014288 0)
(0.0630137 -0.0141894 0)
(0.0774173 -0.0118352 0)
(0.0875637 -0.00651378 0)
(0.0874362 0.00929974 0)
(0.0769074 0.0303999 0)
(0.0720168 0.0516587 0)
(-0.0470449 0.0866808 0)
(0.78897 0.0619184 0)
(0.495436 -0.0288847 0)
(0.509167 0.00397205 0)
(0.515614 0.066221 0)
(0.449398 0.110661 0)
(0.357905 0.126096 0)
(0.26932 0.118672 0)
(0.190239 0.0965312 0)
(0.121026 0.0652223 0)
(0.0622679 0.0294185 0)
(0.00923031 -0.00913257 0)
(-0.0223881 -0.0378482 0)
(-0.0359236 -0.0553105 0)
(-0.0420899 -0.0661721 0)
(-0.0446341 -0.0707031 0)
(-0.0455421 -0.0683092 0)
(-0.0441121 -0.0585037 0)
(-0.0370897 -0.0398171 0)
(-0.027186 -0.0314373 0)
(-0.0214977 -0.0238344 0)
(-0.0165494 -0.0213758 0)
(-0.014304 -0.0214657 0)
(-0.0145906 -0.021771 0)
(-0.0161046 -0.0201866 0)
(-0.0137207 -0.0149585 0)
(-0.00615304 -0.0150461 0)
(0.00336309 -0.0171529 0)
(0.0140879 -0.0200401 0)
(0.0259857 -0.0226842 0)
(0.0389317 -0.0243394 0)
(0.0525127 -0.0238814 0)
(0.065922 -0.0193205 0)
(0.0779746 -0.00785993 0)
(0.08732 0.0122184 0)
(0.0915907 0.0372606 0)
(0.10225 0.0640948 0)
(0.0788312 0.0907956 0)
(0.116231 0.059347 0)
(0.116392 0.0416237 0)
(-0.19129 0.0477855 0)
(0.783348 -0.467771 0)
(0.296973 -0.294269 0)
(0.369664 -0.111751 0)
(0.418161 0.044815 0)
(0.387781 0.141174 0)
(0.329565 0.183085 0)
(0.269398 0.185566 0)
(0.210842 0.162804 0)
(0.155025 0.126141 0)
(0.104198 0.0842103 0)
(0.0593582 0.0408009 0)
(0.0202451 -0.0038396 0)
(-0.00707914 -0.0386095 0)
(-0.0211099 -0.0581771 0)
(-0.0285848 -0.066947 0)
(-0.0322325 -0.0667058 0)
(-0.0326231 -0.0584954 0)
(-0.0293157 -0.0455555 0)
(-0.0246781 -0.0359188 0)
(-0.0210765 -0.0282966 0)
(-0.0182746 -0.0241734 0)
(-0.0169875 -0.022366 0)
(-0.0168537 -0.0215072 0)
(-0.0165551 -0.0206205 0)
(-0.0137755 -0.0197244 0)
(-0.00820039 -0.0216258 0)
(-0.0010283 -0.025216 0)
(0.00726718 -0.0292953 0)
(0.0160739 -0.0328862 0)
(0.0253887 -0.0354933 0)
(0.0354242 -0.0360489 0)
(0.0464828 -0.0322363 0)
(0.0587136 -0.0206793 0)
(0.0727946 0.00112083 0)
(0.0866872 0.029002 0)
(0.103034 0.0559479 0)
(0.112262 0.0680862 0)
(0.123218 0.046484 0)
(0.132071 0.052852 0)
(-0.113316 0.0956338 0)
(0.660643 -0.519935 0)
(-0.0776417 -0.259247 0)
(0.0996666 -0.0251669 0)
(0.209441 0.125683 0)
(0.200194 0.193362 0)
(0.184063 0.226805 0)
(0.167821 0.22844 0)
(0.146423 0.20522 0)
(0.120179 0.166987 0)
(0.0921205 0.122143 0)
(0.0647147 0.0749263 0)
(0.0392347 0.0278711 0)
(0.0158108 -0.0150763 0)
(-0.00144529 -0.044661 0)
(-0.0122063 -0.0599162 0)
(-0.0181684 -0.0636409 0)
(-0.020517 -0.0584002 0)
(-0.0201314 -0.0481612 0)
(-0.0187719 -0.0383239 0)
(-0.0177275 -0.0304011 0)
(-0.0171372 -0.0253594 0)
(-0.0172435 -0.0226889 0)
(-0.0177277 -0.021662 0)
(-0.0177312 -0.0218485 0)
(-0.016103 -0.023381 0)
(-0.0126197 -0.0269962 0)
(-0.00797113 -0.0316982 0)
(-0.00297211 -0.0362337 0)
(0.00157083 -0.0400089 0)
(0.00542179 -0.0430573 0)
(0.00927364 -0.0449334 0)
(0.014316 -0.0435192 0)
(0.0219206 -0.0351658 0)
(0.0338082 -0.0165894 0)
(0.0531666 0.01102 0)
(0.0717817 0.0362341 0)
(0.0895949 0.0469941 0)
(0.106662 0.0426006 0)
(0.14313 0.0721263 0)
(-0.0698815 0.166767 0)
(0.441071 -0.440038 0)
(-0.27609 -0.251384 0)
(-0.193288 -0.134424 0)
(0.0326182 0.115945 0)
(-0.00604381 0.171989 0)
(0.0302978 0.219771 0)
(0.0524012 0.230179 0)
(0.0629413 0.214148 0)
(0.0641314 0.18112 0)
(0.0593095 0.138972 0)
(0.0510675 0.0923816 0)
(0.0407425 0.0454505 0)
(0.028244 0.00278252 0)
(0.0146634 -0.030438 0)
(0.00338028 -0.0509637 0)
(-0.00423225 -0.0593063 0)
(-0.00813117 -0.0571189 0)
(-0.00987449 -0.0484832 0)
(-0.0111802 -0.0385882 0)
(-0.0127823 -0.0303715 0)
(-0.0145576 -0.0249133 0)
(-0.0164923 -0.0219614 0)
(-0.0184134 -0.0211201 0)
(-0.0198429 -0.0222517 0)
(-0.0201107 -0.0254216 0)
(-0.0189773 -0.0304072 0)
(-0.0170526 -0.0356376 0)
(-0.015803 -0.0393704 0)
(-0.0169298 -0.0413714 0)
(-0.0211072 -0.0429389 0)
(-0.0275711 -0.0448178 0)
(-0.034696 -0.045702 0)
(-0.0402501 -0.0429074 0)
(-0.041071 -0.034045 0)
(-0.0325067 -0.0186421 0)
(-0.017371 0.00112212 0)
(-0.00630915 0.010481 0)
(0.0121663 0.0122666 0)
(0.0901802 0.0973595 0)
(-0.502744 0.279501 0)
(0.157438 -0.328833 0)
(-0.56058 -0.273908 0)
(-0.701262 -0.24627 0)
(-0.172143 -0.0354903 0)
(-0.185598 0.0906899 0)
(-0.100724 0.165825 0)
(-0.0477798 0.197292 0)
(-0.0118509 0.195672 0)
(0.0122991 0.171411 0)
(0.0265939 0.135763 0)
(0.0352075 0.0935028 0)
(0.0384731 0.0508142 0)
(0.0356672 0.0122562 0)
(0.0274379 -0.0193852 0)
(0.0175314 -0.0416026 0)
(0.00942361 -0.053172 0)
(0.00449054 -0.0537895 0)
(0.00125705 -0.0461577 0)
(-0.00243667 -0.0359279 0)
(-0.00689558 -0.0275914 0)
(-0.0112777 -0.0222749 0)
(-0.0153578 -0.0195109 0)
(-0.0192531 -0.0190135 0)
(-0.0228434 -0.020905 0)
(-0.0255666 -0.025317 0)
(-0.0268638 -0.0313722 0)
(-0.0273397 -0.0363167 0)
(-0.0294941 -0.0373482 0)
(-0.0365103 -0.0346769 0)
(-0.0502973 -0.0311226 0)
(-0.0711582 -0.0283988 0)
(-0.0988664 -0.024849 0)
(-0.132704 -0.016655 0)
(-0.170802 -5.44273e-05 0)
(-0.211683 0.0241493 0)
(-0.252313 0.0513706 0)
(-0.299405 0.0773216 0)
(-0.350053 0.098536 0)
(-0.417507 0.113031 0)
(-0.707323 0.113933 0)
(-1.47057 -0.260059 0)
(-0.140751 -0.168793 0)
(-0.249197 -0.0141006 0)
(-0.178548 0.0930703 0)
(-0.118544 0.141681 0)
(-0.0680064 0.15378 0)
(-0.0274288 0.142745 0)
(0.00399107 0.115895 0)
(0.0267737 0.080716 0)
(0.0407416 0.0466091 0)
(0.0451953 0.0164439 0)
(0.0409866 -0.00874675 0)
(0.0325202 -0.0279055 0)
(0.0239884 -0.039322 0)
(0.0176898 -0.0409242 0)
(0.0127308 -0.0336883 0)
(0.0066318 -0.0237358 0)
(-0.00109009 -0.0163485 0)
(-0.00822678 -0.0124216 0)
(-0.0143954 -0.0106196 0)
(-0.0203449 -0.0105223 0)
(-0.0264117 -0.0124327 0)
(-0.0318447 -0.0167658 0)
(-0.0353289 -0.022721 0)
(-0.0373339 -0.0268204 0)
(-0.0407713 -0.025219 0)
(-0.0487995 -0.0186662 0)
(-0.0627361 -0.0108013 0)
(-0.0807182 -0.00311468 0)
(-0.0997784 0.0046104 0)
(-0.118562 0.0134805 0)
(-0.136873 0.0257746 0)
(-0.154309 0.0441061 0)
(-0.169298 0.0660944 0)
(-0.177714 0.0820386 0)
(-0.165918 0.0674572 0)
(-0.132714 -0.0256804 0)
(-0.276775 -0.24432 0)
(-0.246326 0.0448996 0)
(-0.102917 -0.135605 0)
(-0.218668 -0.0330871 0)
(-0.205239 0.0450866 0)
(-0.157708 0.0884274 0)
(-0.102057 0.104745 0)
(-0.0492071 0.103365 0)
(-0.00260654 0.0870999 0)
(0.0328357 0.0625878 0)
(0.0550396 0.0427159 0)
(0.0655197 0.0273559 0)
(0.0653098 0.0131701 0)
(0.0584501 -0.00430284 0)
(0.047024 -0.0185855 0)
(0.0336203 -0.0228866 0)
(0.0214235 -0.0126119 0)
(0.0109749 0.00423493 0)
(0.00068379 0.0151678 0)
(-0.00790317 0.0193415 0)
(-0.0146819 0.0218658 0)
(-0.0210123 0.0233932 0)
(-0.0277192 0.0219966 0)
(-0.0346063 0.015041 0)
(-0.0412127 0.003782 0)
(-0.0485062 -0.00256062 0)
(-0.0562811 0.00432127 0)
(-0.0630536 0.0203619 0)
(-0.0695775 0.0338753 0)
(-0.075759 0.0369253 0)
(-0.0791155 0.0376363 0)
(-0.0790914 0.0397091 0)
(-0.0754719 0.045702 0)
(-0.0674544 0.0575403 0)
(-0.0534904 0.0736718 0)
(-0.0344532 0.0900509 0)
(-0.000518413 0.0888636 0)
(0.127475 0.0139251 0)
(-0.191266 -0.162302 0)
(0.234203 -0.16146 0)
(-0.253625 -0.102562 0)
(-0.208951 0.0263484 0)
(-0.197635 -0.0757672 0)
(-0.24675 -0.0404472 0)
(-0.232712 -0.0056632 0)
(-0.185469 0.0170336 0)
(-0.121966 0.0267906 0)
(-0.0561673 0.0260316 0)
(0.0165864 0.00659604 0)
(0.0643815 -0.0213677 0)
(0.0969001 -0.0471388 0)
(0.116322 -0.074994 0)
(0.122558 -0.105626 0)
(0.113341 -0.13423 0)
(0.0894768 -0.161135 0)
(0.054993 -0.18128 0)
(0.0217304 -0.187333 0)
(0.00247093 -0.182405 0)
(-0.004857 -0.177272 0)
(-0.00875033 -0.174519 0)
(-0.0118511 -0.172991 0)
(-0.0141577 -0.17293 0)
(-0.0165624 -0.175129 0)
(-0.0219353 -0.180448 0)
(-0.0358557 -0.186604 0)
(-0.0600413 -0.185841 0)
(-0.0842461 -0.174493 0)
(-0.0975747 -0.157289 0)
(-0.0979528 -0.137566 0)
(-0.0896423 -0.117149 0)
(-0.0772731 -0.10298 0)
(-0.0604205 -0.0890859 0)
(-0.0374885 -0.0715861 0)
(-0.00335611 -0.0466855 0)
(0.0430972 -0.0280236 0)
(0.088988 -0.0204424 0)
(0.135654 -0.0376505 0)
(0.185003 -0.0879839 0)
(-0.126637 -0.165365 0)
)
;

boundaryField
{
    floor
    {
        type            noSlip;
    }
    ceiling
    {
        type            noSlip;
    }
    sWall
    {
        type            noSlip;
    }
    nWall
    {
        type            noSlip;
    }
    sideWalls
    {
        type            empty;
    }
    glass1
    {
        type            noSlip;
    }
    glass2
    {
        type            noSlip;
    }
    sun
    {
        type            noSlip;
    }
    heatsource1
    {
        type            noSlip;
    }
    heatsource2
    {
        type            noSlip;
    }
    Table_master
    {
        type            noSlip;
    }
    Table_slave
    {
        type            noSlip;
    }
    inlet
    {
        type            fixedValue;
        value           uniform (0.1 0 0);
    }
    outlet
    {
        type            zeroGradient;
    }
}


// ************************************************************************* //
