/*--------------------------------*- C++ -*----------------------------------*=========                 |
  \      /  F ield         | OpenFOAM: The Open Source CFD Toolbox
   \    /   O peration     | Website:  https://openfoam.org
    \  /    A nd           | Version:  6
     \/     M anipulation  |
\*---------------------------------------------------------------------------*/
FoamFile
{
    version     2.0;
    format      ascii;
    class       volScalarField;
    location    "900";
    object      PPD;
}
// * * * * * * * * * * * * * * * * * * * * * * * * * * * * * * * * * * * * * //

dimensions      [0 0 0 0 0 0 0];

internalField   nonuniform List<scalar> 
459
(
64.57265192035243
53.41203812320821
52.16744745768704
50.94153369975442
50.07978737946008
49.49958780803231
49.161925357085515
49.12192195756821
49.340412932181216
49.82408455609906
50.666709743567154
51.91958303294586
53.75294389050619
55.91969898544813
56.83017120384241
60.53770434418593
59.8430060613811
59.55945602974059
59.585245186097005
59.66259855138311
59.73993053131321
59.46963330220699
59.33683749632073
59.32353274019818
59.352724502546
59.4033298248324
59.47439152440262
59.54617739856515
59.68847164100096
59.904354198964235
60.3582878762528
60.53770434418593
60.614773321455374
61.10228350112173
63.13425666236916
54.50487479639436
54.19406249509943
53.09454463328608
52.43513871394073
51.962469958691315
51.69809953899843
51.67472544418219
51.75672196426572
51.928957748593426
52.28862758130296
52.9515416578686
53.99272872789469
55.32553974380913
56.54129350533942
57.385919927817525
57.43781246641953
57.92840080147301
59.45627618965576
59.17234492069413
58.92216986551162
58.53961131841958
58.327740343680745
58.24915038247069
58.287676679990426
58.304165012101535
58.27713875111272
58.2695075367661
58.26525076564946
58.24165330036757
58.25219298754326
58.33703437355024
58.68738643124457
59.4820746100014
59.66259855138311
58.93628893361582
65.73694335233114
54.6460194776075
56.02478289081241
55.47160741484317
55.29775768541915
55.20925122807821
55.19956744206132
55.26203392754531
55.20093779455271
54.90132168389167
54.495040135187615
54.21200493068961
54.35064512236507
55.02811028499599
56.40418742876267
57.308070533573385
57.4118669101326
53.5005613052618
56.041911976067425
56.92808049568147
57.331630648838164
57.64985131119848
57.90512430699756
58.08690722818615
58.344155700805004
58.48771699261242
58.50572814990552
58.50375910020721
58.455397243699025
58.37993218685686
58.26227199288117
57.9727349720138
57.989251970490855
58.83853601648301
58.28217320706965
55.75305984233798
69.82667920355158
54.96573030497221
57.40161964303361
57.70907628340673
58.491402472196086
59.171435349111434
59.746604689845334
60.122735073202264
59.71228158561141
58.39123480756393
56.56520082424771
54.92800295214429
54.007832241655855
54.00983162232755
55.04122199576513
56.80683297989348
57.35622020455614
55.53740865567654
54.58423358619146
55.931731402942994
57.16854054487609
57.976291357844595
58.5570637392582
58.85886813935564
58.76265189962219
58.55972991295045
58.389786750500804
58.26164872763184
58.18280858052742
58.17823066984932
58.386089111552735
58.87946553407452
59.91973846773943
59.786418593344074
59.2650944123598
57.04693739552645
53.36632701858889
74.31396675291798
56.100522166793
58.73248508861786
59.79610746041796
61.70869016582897
63.810442933745314
65.73996859838584
66.28091408784292
63.94420093743314
60.634757946524736
57.23202134546365
54.53708515362308
53.0044984761957
52.67584590954922
53.40427632738446
54.77878911695878
55.8777421347902
56.065324456783884
56.287550590266505
57.481244512829676
58.90654853869693
60.07750370598762
60.58908642849316
60.845828915559345
61.076651309362234
61.25601351738949
61.110623457296114
60.90068422452729
60.66464322186634
60.45461540120895
60.33689337281585
60.371441519930805
60.46865063938387
59.95620522374261
58.87699272582974
55.920097049717015
55.75856373044556
62.048481880473155
60.89280760353591
52.57659180844937
78.36535063260695
58.413098380019754
61.42314612700554
62.254826064397484
64.61666650257405
66.67419968388671
68.0002760242962
67.33839208458639
63.602507149547264
59.72755030050922
56.0298559580084
53.1704951637587
51.54111654607725
51.31426592782316
52.25989860789325
53.99815696490535
55.86400276959361
57.41116795085712
58.76119711249785
59.99754555647328
60.66613875435521
61.17916210351031
61.56314139694147
61.84427290448107
62.048481880473155
62.20149647864637
62.303437223190336
62.354386638393606
62.354386638393606
62.2524738076376
62.048481880473155
61.793187399356
61.40545921835341
60.226844835429326
58.70007704678923
55.620487054628676
55.748253784287584
56.39141405472294
56.18278105893324
56.590450615294934
81.96091988016003
63.43611852722916
69.06652967172005
67.09045742055358
66.61061853812292
66.93608021542758
66.04882131937565
63.85748710412995
60.5398700326096
56.6267614455757
53.04848402590458
50.537445920288725
49.55568403945769
50.093010844787834
51.90502691307172
54.51393332303019
57.45267541375813
59.275623777369006
60.306350205424835
61.15353890910744
61.793187399356
62.2524738076376
62.583483423408325
62.7868791318194
62.96465599155203
63.06615980325352
63.11688880093008
63.11688880093008
63.06615980325352
62.91388135058303
62.60892066898856
62.27795726002693
61.89534519222238
61.43522609531543
59.50260780893219
56.61861250021485
55.608813182897926
55.019610238511895
53.62759106860477
58.17625159032754
86.73865174165856
78.65694215439954
76.73701051893362
71.94229690535397
69.60960098394852
67.53076495652704
64.46765569803614
60.20803130810454
55.36375602667477
50.969436032672505
47.96691363397976
46.744446414998656
47.421310467796694
49.698828980971285
53.1182436224907
57.23802998269035
59.17234492069413
60.58908642849316
61.71653454960988
62.45624312023184
62.93927055664336
63.26898312356295
63.49685984129513
63.64859774420783
63.749675021870196
63.800189005103725
63.8254397951759
63.77493407708377
63.69914457288181
63.522159576547544
63.26898312356295
62.888488384191916
62.50715001316368
62.09950042810082
61.6909770853707
61.26076811484683
59.8143138067133
59.11022601739793
56.06352715886906
52.105781943466276
92.19678968574289
88.5045060901104
82.50854278475343
75.50280934626963
68.8853297523568
62.73302879964679
55.427709505080124
48.11572174226365
42.830640084984864
40.33568584366472
40.53292467070148
42.94093734268474
47.09913772602011
52.509160401940356
56.762792833858406
59.12069243846851
61.05101614031478
62.2524738076376
63.040789561150056
63.54745529225788
63.87592891847962
64.07355881312397
63.95064181597305
63.817100681833296
63.66989348719279
63.461447067304796
63.20241283290968
62.885322561904175
62.52526414478534
62.07538417758439
61.57663634472109
61.01492737156926
60.544866852235494
59.984825133795084
59.304299725625384
58.708636541857715
58.21901729436025
57.8194626767109
57.11136708803215
55.57040753825313
98.81758302308207
41.0967133708377
13.509827158264955
5.4811466989862225
5.995701311899268
11.208750762941904
19.666310696421633
29.64423412478054
39.837849897695186
47.753069280386384
53.09346783357558
57.4118669101326
60.0490386915376
61.81873179864611
62.287567784182045
62.56433084888514
62.70549814252203
62.73471593231087
62.69028003231525
62.61645810608505
62.492089376738676
62.354880674580826
62.171668839185514
61.96457138253232
61.709926117746576
61.442237490824155
61.20196296100107
60.98173742015937
60.82811530070497
60.73078744551794
60.70170490954051
60.71193888510276
60.78661578888618
60.92643363104934
61.395089141291116
62.95591724802481
68.45533526334016
60.38341843865854
88.86571466350428
17.798081463345895
5.499926819886298
12.088067365338645
20.706702080997132
29.954598295574826
38.52177264742691
45.618928612702554
49.95658672418171
53.30976348446456
55.93205138339607
57.913435266185516
59.260601157362615
60.178846131485756
60.8110493222495
61.21527593606716
61.47404388789331
61.6469901039954
61.76155610796145
61.818689671230395
61.84589099662872
61.82144150027536
61.77466982563856
61.709361308700636
61.63202779530613
61.55281985106702
61.486128548767105
61.48167524311888
61.519809247910445
61.69464576068653
62.07695875792825
62.69225132204233
63.38009823122756
64.04553461151485
64.84118999324778
67.97587071689719
62.52870438994569
67.02765826029787
21.36575731682933
27.131699588296996
22.205101284377605
7.110320568163928
19.3813515294527
28.63342948575098
35.82060190954695
41.823624319659125
46.60414225150447
50.37139002071938
53.302095364447474
55.56308215967695
57.30992878509122
58.56922096298611
59.40309280455369
59.862468008405415
60.08936280387367
60.17093302805898
60.2173823537648
60.2553435759392
60.34310979205171
60.41610246192722
60.498807607215944
60.588575848176205
60.65697925559826
60.758737648744905
60.87242921221408
60.98355114153863
61.16608495151297
61.3961848051246
61.75828652960152
62.34812508534686
63.32605160761674
65.02034597717709
66.82234245236731
67.068812541796
67.31473051261004
63.629241988191154
63.576665654379504
58.06876132299085
)
;

boundaryField
{
    ".*"
    {
        type            zeroGradient;
    }
}


// ************************************************************************* //
