/*--------------------------------*- C++ -*----------------------------------*\
  =========                 |
  \\      /  F ield         | OpenFOAM: The Open Source CFD Toolbox
   \\    /   O peration     | Website:  https://openfoam.org
    \\  /    A nd           | Version:  6
     \\/     M anipulation  |
\*---------------------------------------------------------------------------*/
FoamFile
{
    version     2.0;
    format      ascii;
    class       volScalarField;
    location    "1200";
    object      alphat;
}
// * * * * * * * * * * * * * * * * * * * * * * * * * * * * * * * * * * * * * //

dimensions      [1 -1 -1 0 0 0 0];

internalField   nonuniform List<scalar> 
459
(
0.00134626
0.00147755
0.00150866
0.00158409
0.0016552
0.00172334
0.00179247
0.00185189
0.00188928
0.00189757
0.00187123
0.00180633
0.00169975
0.00155283
0.0013864
0.000609825
0.00072951
0.000826616
0.000837067
0.000813996
0.000779038
0.00072995
0.000680206
0.00063509
0.000595237
0.000560138
0.000529136
0.000501597
0.000477051
0.000454594
0.000433137
0.000411246
0.000397378
0.000364189
0.00182296
0.00460083
0.00446218
0.00520892
0.00595021
0.00667061
0.0072533
0.0077337
0.00815236
0.00847426
0.00866257
0.00868179
0.00848242
0.0079461
0.00657804
0.00143228
0.000926692
0.000633942
0.00138376
0.00197321
0.00242294
0.00268028
0.00267285
0.00207257
0.00176347
0.00154837
0.00138599
0.00125852
0.00115569
0.00107007
0.00099034
0.000912086
0.00084136
0.000779637
0.000927689
0.0004773
0.00221411
0.00627714
0.00556853
0.00689936
0.00757364
0.00807912
0.00847007
0.00882905
0.00920981
0.00958874
0.00991977
0.0101512
0.0102222
0.0100165
0.00925594
0.00693658
0.00151835
0.0011785
0.00179176
0.00240019
0.00298768
0.00340586
0.00331794
0.00103497
0.000908763
0.000807464
0.000726015
0.000659944
0.000605773
0.000560979
0.000524052
0.000494436
0.000535728
0.000623044
0.0010614
0.000556877
0.00258479
0.00794311
0.00563527
0.0072756
0.00780741
0.00801465
0.00818929
0.0084385
0.00878782
0.00921022
0.00964483
0.0100225
0.0102654
0.0102853
0.0100351
0.00909311
0.00580939
0.00177498
0.00220376
0.00290593
0.00366228
0.0043101
0.00471874
0.00440774
0.00116857
0.00105876
0.000979234
0.000917537
0.00086444
0.000817108
0.000771429
0.000723761
0.000669206
0.000627299
0.000653459
0.00126051
0.000615614
0.00295989
0.0100554
0.00621673
0.00710812
0.00774612
0.00780805
0.00780446
0.00800461
0.00833416
0.00878634
0.00927709
0.00970505
0.00996634
0.0100169
0.00987291
0.00949079
0.00861403
0.0072632
0.00683524
0.00677302
0.00682247
0.00685704
0.00679909
0.00648625
0.00536357
0.00481071
0.00447886
0.00422202
0.003962
0.00359886
0.00314657
0.00262363
0.00206231
0.00152101
0.00113263
0.00121973
0.000813291
0.000750729
0.000895735
0.00100441
0.00335597
0.0123554
0.00846437
0.00731459
0.00778457
0.00780914
0.00780683
0.00791803
0.00817999
0.00861617
0.00914564
0.0096158
0.00987982
0.00987624
0.00966409
0.0093788
0.00912496
0.00892845
0.00886738
0.00879857
0.00864368
0.00840434
0.0080912
0.00768256
0.00711001
0.00660944
0.00618139
0.00578714
0.00539822
0.00497453
0.00446976
0.00387143
0.0031867
0.00246345
0.00185425
0.00139189
0.00110408
0.000975086
0.00140022
0.00105562
0.00370649
0.013909
0.0116104
0.0093799
0.00892907
0.00850319
0.00814583
0.00804665
0.00825997
0.00874208
0.00934471
0.00985795
0.0101013
0.010013
0.00970142
0.00941892
0.00939904
0.00960135
0.00974744
0.00966147
0.00935606
0.00891159
0.008386
0.00780673
0.00719832
0.00664033
0.00614232
0.00569094
0.00528281
0.00492395
0.00461408
0.00420029
0.00366263
0.0030336
0.00246529
0.00195638
0.00162709
0.0015471
0.00157335
0.00121603
0.00376369
0.0120663
0.0109371
0.0100169
0.00914231
0.00836463
0.00795644
0.00800804
0.00847294
0.00919707
0.00994318
0.0104584
0.0105803
0.0103102
0.00986535
0.00961553
0.0097622
0.010015
0.00995411
0.00958842
0.00900933
0.00830704
0.00755308
0.00681339
0.00614859
0.00559002
0.00512722
0.00474789
0.00445153
0.00424328
0.00412507
0.0040555
0.00380975
0.00342299
0.00311417
0.00300061
0.0031853
0.00371533
0.00472122
0.00181949
0.00365369
0.00430842
0.00473041
0.00485277
0.00514844
0.0057857
0.00676169
0.00798818
0.00928768
0.0104276
0.0111724
0.0113613
0.0110219
0.0103756
0.00994362
0.0097836
0.00972931
0.00953446
0.00907879
0.0083991
0.00756999
0.00669333
0.00586569
0.00516001
0.00460088
0.00416876
0.00383081
0.00356268
0.00334788
0.00317296
0.00302634
0.00290593
0.00281987
0.00276785
0.00276472
0.00279572
0.00278589
0.00267151
0.00247716
0.00168548
0.00170474
0.00445397
0.00813022
0.0104629
0.0119536
0.0128216
0.0131231
0.0129502
0.0124183
0.0115898
0.0105792
0.00972312
0.009228
0.0089
0.00847897
0.00788455
0.00714089
0.00631849
0.00550635
0.00477477
0.00417214
0.00371795
0.00339005
0.00315324
0.00298025
0.00285494
0.00276885
0.00271887
0.00270597
0.00272556
0.00276686
0.00282676
0.00289778
0.00295753
0.00297866
0.00296813
0.00262338
0.00139357
0.00263537
0.00836303
0.0112307
0.0119305
0.0120641
0.0117826
0.0111401
0.0102996
0.00941064
0.0085741
0.00784833
0.00729809
0.00684859
0.00635831
0.00580004
0.00520879
0.00462557
0.00409261
0.00364213
0.00328418
0.00301159
0.00280807
0.00266616
0.00257383
0.00252267
0.00250638
0.00251808
0.00255661
0.00262475
0.00271778
0.00283138
0.00295776
0.00308104
0.00318499
0.00326866
0.00325636
0.00224935
0.00143949
0.002326
0.00246783
0.00257001
0.00274689
0.00261717
0.00250817
0.00241601
0.00228679
0.00211729
0.0019179
0.0017012
0.00149137
0.00131337
0.00117573
0.00107312
0.000995904
0.000936092
0.000888735
0.000851802
0.000824861
0.00080765
0.000799593
0.0008
0.000807792
0.000821532
0.000840919
0.000865974
0.000897061
0.000935037
0.00098041
0.00103303
0.00109338
0.00116189
0.00123897
0.00132413
0.00142262
0.00144674
0.00131842
0.00122528
0.00138527
)
;

boundaryField
{
    floor
    {
        type            compressible::alphatWallFunction;
        Prt             0.85;
        value           nonuniform List<scalar> 
29
(
0.000195594
8.58069e-05
0.000103486
0.000117573
0.000119077
0.000115755
0.000110699
0.000103552
9.62509e-05
8.95728e-05
8.36252e-05
7.83467e-05
7.36503e-05
6.94496e-05
6.56811e-05
6.22119e-05
5.88768e-05
5.54526e-05
5.32715e-05
4.80111e-05
4.80105e-05
6.57196e-05
7.78545e-05
8.66728e-05
0.000195591
8.58059e-05
8.93998e-05
0.000167141
0.000247562
)
;
    }
    ceiling
    {
        type            compressible::alphatWallFunction;
        Prt             0.85;
        value           nonuniform List<scalar> 
43
(
0.000319051
0.000337168
0.000350154
0.000372662
0.000356342
0.000342539
0.000330811
0.000314276
0.000292429
0.000266482
0.000237941
0.000209921
0.000185804
0.000166902
0.000152646
0.000141814
0.000133357
0.000126615
0.000121328
0.000117454
0.000114971
0.000113807
0.000113866
0.000114992
0.000116974
0.000119765
0.00012336
0.000127804
0.000133207
0.00013963
0.000147035
0.000155475
0.000164991
0.00017562
0.000187278
0.000200654
0.000203915
0.000186501
0.000173745
0.000195607
0.000485357
0.000564716
0.000358183
)
;
    }
    sWall
    {
        type            compressible::alphatWallFunction;
        Prt             0.85;
        value           uniform 0.00031778;
    }
    nWall
    {
        type            compressible::alphatWallFunction;
        Prt             0.85;
        value           nonuniform List<scalar> 6(0.000142662 0.000149843 0.000172094 0.000196375 0.000202586 0.000195257);
    }
    sideWalls
    {
        type            empty;
    }
    glass1
    {
        type            compressible::alphatWallFunction;
        Prt             0.85;
        value           nonuniform List<scalar> 9(0.000185318 0.00024818 0.000298549 0.000345499 0.000392357 0.000441215 0.000484012 0.000491103 0.000478002);
    }
    glass2
    {
        type            compressible::alphatWallFunction;
        Prt             0.85;
        value           nonuniform List<scalar> 2(0.000251482 0.000233948);
    }
    sun
    {
        type            compressible::alphatWallFunction;
        Prt             0.85;
        value           nonuniform List<scalar> 
14
(
0.000190163
0.000207922
0.000212107
0.000222215
0.000231695
0.000240738
0.000249871
0.000257692
0.000262598
0.000263683
0.000260228
0.000251695
0.000237607
0.000218027
)
;
    }
    heatsource1
    {
        type            compressible::alphatWallFunction;
        Prt             0.85;
        value           nonuniform List<scalar> 3(0.00010674 0.000127641 0.000143041);
    }
    heatsource2
    {
        type            compressible::alphatWallFunction;
        Prt             0.85;
        value           nonuniform List<scalar> 4(0.000201989 0.000132053 0.000132051 0.000213586);
    }
    Table_master
    {
        type            compressible::alphatWallFunction;
        Prt             0.85;
        value           nonuniform List<scalar> 9(0.000147335 0.000129498 0.00011497 0.000103131 9.34091e-05 8.535e-05 7.86187e-05 7.30195e-05 6.8493e-05);
    }
    Table_slave
    {
        type            compressible::alphatWallFunction;
        Prt             0.85;
        value           nonuniform List<scalar> 9(0.000165947 0.000150671 0.000139494 0.000130749 0.000123168 0.000116364 0.000109753 0.000102803 9.47807e-05);
    }
    inlet
    {
        type            fixedValue;
        value           uniform 1.94e-05;
    }
    outlet
    {
        type            zeroGradient;
    }
}


// ************************************************************************* //
