/*--------------------------------*- C++ -*----------------------------------*\
  =========                 |
  \\      /  F ield         | OpenFOAM: The Open Source CFD Toolbox
   \\    /   O peration     | Website:  https://openfoam.org
    \\  /    A nd           | Version:  6
     \\/     M anipulation  |
\*---------------------------------------------------------------------------*/
FoamFile
{
    version     2.0;
    format      ascii;
    class       volScalarField;
    location    "1200";
    object      epsilon;
}
// * * * * * * * * * * * * * * * * * * * * * * * * * * * * * * * * * * * * * //

dimensions      [0 2 -3 0 0 0 0];

internalField   nonuniform List<scalar> 
459
(
0.000547485
0.000721781
0.000768231
0.000889281
0.00101445
0.00114492
0.00128824
0.00142056
0.00150822
0.00152799
0.00146509
0.0013178
0.001098
0.000837207
0.000595899
5.07916e-05
8.6926e-05
0.000126453
0.00013132
0.000120767
0.000105874
8.71003e-05
7.04835e-05
5.73719e-05
4.72376e-05
3.93667e-05
3.31874e-05
2.82724e-05
2.4323e-05
2.10485e-05
1.82076e-05
1.55852e-05
1.40624e-05
1.08279e-05
0.00136189
0.00190607
0.000681848
0.000665644
0.000706084
0.000771989
0.000867464
0.000976833
0.00106621
0.00110602
0.00108034
0.000989899
0.000847837
0.000680783
0.000550647
0.000656906
0.000177941
5.70637e-05
0.000131987
0.000147882
0.000139226
0.000121759
0.000104209
9.61306e-05
7.76494e-05
6.11052e-05
4.80664e-05
3.8093e-05
3.05028e-05
2.47005e-05
2.02795e-05
1.69937e-05
1.49224e-05
1.40073e-05
3.55513e-05
2.4371e-05
0.00244496
0.00453844
0.000846043
0.000646135
0.000691626
0.000797122
0.000946566
0.00110855
0.00123175
0.00128357
0.00125655
0.00115886
0.00100643
0.000830295
0.000681975
0.000611375
0.000782689
0.000366356
0.000289151
0.000231741
0.000187128
0.000152106
0.00013156
0.000248282
0.00016808
0.000117905
8.57045e-05
6.4371e-05
4.97856e-05
3.95383e-05
3.22336e-05
2.70721e-05
2.04122e-05
1.72295e-05
6.91624e-05
3.87055e-05
0.0038979
0.00925423
0.00133548
0.000678489
0.000709685
0.00086987
0.00111426
0.00134327
0.00148549
0.00152654
0.00147765
0.00135254
0.00116304
0.000962516
0.000789497
0.000679904
0.000668491
0.00125085
0.000727279
0.000449908
0.00030886
0.000227594
0.000176469
0.000153422
0.000357605
0.000266007
0.000210483
0.000173172
0.000144827
0.000122326
0.000102943
8.50189e-05
6.72077e-05
3.88871e-05
2.61944e-05
0.000123765
5.22953e-05
0.00586461
0.0162893
0.0026218
0.000862537
0.000805978
0.00105605
0.00148613
0.00175569
0.00186839
0.00186274
0.00176633
0.00159025
0.00135196
0.00108945
0.000845806
0.0006546
0.000532581
0.000491171
0.000409663
0.000331489
0.000266821
0.000214893
0.000173993
0.0001455
0.000139922
0.00012845
0.000116941
0.000105682
9.43231e-05
8.31158e-05
7.22323e-05
6.20398e-05
5.27011e-05
4.09219e-05
3.18139e-05
8.58449e-05
5.99357e-05
9.49515e-05
0.00016136
0.000227516
0.00856341
0.024015
0.00585133
0.00176809
0.00140886
0.00192398
0.00233426
0.00246628
0.00244648
0.00234567
0.00217378
0.00192215
0.00160016
0.00124736
0.000918619
0.000660524
0.000491719
0.000401066
0.000343906
0.000293809
0.000245412
0.000201882
0.000165899
0.000139689
0.000125232
0.000117314
0.00011155
0.000105465
9.78645e-05
8.78855e-05
7.60307e-05
6.42173e-05
5.36049e-05
4.42521e-05
3.95843e-05
6.05783e-05
6.30927e-05
7.45153e-05
0.000302036
0.000264016
0.0115563
0.0285735
0.0118512
0.00560015
0.00440426
0.00426557
0.00395932
0.00361882
0.00331279
0.00303499
0.00273304
0.00235921
0.00191089
0.00143472
0.0010012
0.000674887
0.000472317
0.000366276
0.000307485
0.000261038
0.000217566
0.000179682
0.000150324
0.000131038
0.000121857
0.000119459
0.000119689
0.000120351
0.000120186
0.000117485
0.000108223
9.61516e-05
8.43422e-05
7.435e-05
7.22729e-05
8.55254e-05
0.000110264
0.000177797
0.000434134
0.000403507
0.0121286
0.0297505
0.0172777
0.0123874
0.00966124
0.0075193
0.00602267
0.00504755
0.00441527
0.00394187
0.00346658
0.002901
0.00225346
0.00159732
0.00102476
0.000633651
0.000415682
0.000309695
0.000255011
0.000213399
0.000178151
0.000150834
0.000132581
0.000123258
0.0001217
0.000125781
0.000133662
0.000144828
0.00015947
0.000177607
0.000198065
0.000211673
0.00022572
0.000253636
0.000308683
0.000471505
0.00086453
0.00169988
0.0056621
0.00135452
0.011134
0.0182022
0.0146068
0.0112333
0.00886252
0.00740193
0.00654372
0.00603029
0.005628
0.00512649
0.00439115
0.00344573
0.00244381
0.00153387
0.000799447
0.000461289
0.000310059
0.000236948
0.000194308
0.000163217
0.000139648
0.000123758
0.000115348
0.00011359
0.00011743
0.00012602
0.000139283
0.000158167
0.000184543
0.000221226
0.000272093
0.000342737
0.000441062
0.000587884
0.000802727
0.00109388
0.00143
0.00173197
0.00196104
0.00107888
0.00364999
0.00650893
0.00847585
0.00900476
0.00899075
0.00848118
0.00738669
0.00584297
0.00404226
0.00246993
0.00145647
0.000833555
0.000481133
0.000310573
0.000228095
0.000184128
0.000156446
0.000136627
0.000122408
0.000113153
0.000108593
0.000108351
0.000112039
0.000119472
0.000130949
0.000147419
0.000170622
0.000203422
0.00025023
0.000317293
0.000412583
0.000546815
0.000728224
0.000950884
0.00118794
0.00141274
0.00125484
0.000609793
0.00379021
0.00874817
0.00856936
0.00701662
0.00596086
0.00490621
0.00380835
0.00274373
0.00181016
0.00111448
0.000681263
0.000433524
0.000300481
0.000232216
0.000195979
0.000174539
0.000160004
0.00014923
0.000141027
0.000134908
0.000130739
0.000128847
0.000129828
0.000134202
0.000142723
0.000156498
0.000177125
0.000206953
0.000249331
0.000308904
0.000391947
0.000505214
0.000651479
0.000824056
0.00100596
0.0012563
0.000667646
0.000671964
0.0027089
0.00323282
0.00365101
0.004563
0.00398267
0.00351902
0.00315252
0.00267793
0.00212842
0.00158363
0.00110608
0.000745647
0.00050947
0.000365604
0.000278049
0.000222276
0.000184603
0.000157989
0.000139105
0.000126322
0.000118579
0.000115066
0.000115241
0.000118639
0.000124795
0.000133839
0.00014616
0.00016247
0.000183986
0.000212088
0.000248096
0.000294169
0.000353008
0.000428028
0.000522525
0.000648058
0.000681661
0.000515943
0.000414409
0.000599493
)
;

boundaryField
{
    floor
    {
        Cmu             0.09;
        kappa           0.41;
        E               9.8;
        type            epsilonWallFunction;
        value           nonuniform List<scalar> 
29
(
0.000595899
5.07916e-05
8.6926e-05
0.000126453
0.00013132
0.000120767
0.000105874
8.71003e-05
7.04835e-05
5.73719e-05
4.72376e-05
3.93667e-05
3.31874e-05
2.82724e-05
2.4323e-05
2.10485e-05
1.82076e-05
1.55852e-05
1.40624e-05
1.08279e-05
1.08279e-05
2.4371e-05
3.87055e-05
5.22953e-05
0.000595899
5.07916e-05
5.70637e-05
0.000366356
0.00125085
)
;
    }
    ceiling
    {
        Cmu             0.09;
        kappa           0.41;
        E               9.8;
        type            epsilonWallFunction;
        value           nonuniform List<scalar> 
43
(
0.0027089
0.00323282
0.00365101
0.004563
0.00398267
0.00351902
0.00315252
0.00267793
0.00212842
0.00158363
0.00110608
0.000745647
0.00050947
0.000365604
0.000278049
0.000222276
0.000184603
0.000157989
0.000139105
0.000126322
0.000118579
0.000115066
0.000115241
0.000118639
0.000124795
0.000133839
0.00014616
0.00016247
0.000183986
0.000212088
0.000248096
0.000294169
0.000353008
0.000428028
0.000522525
0.000648058
0.000681661
0.000515943
0.000414409
0.000599493
0.011134
0.0182022
0.00379021
)
;
    }
    sWall
    {
        Cmu             0.09;
        kappa           0.41;
        E               9.8;
        type            epsilonWallFunction;
        value           uniform 0.0027089;
    }
    nWall
    {
        Cmu             0.09;
        kappa           0.41;
        E               9.8;
        type            epsilonWallFunction;
        value           nonuniform List<scalar> 6(0.000227516 0.000264016 0.000403507 0.000609793 0.000671964 0.000599493);
    }
    sideWalls
    {
        type            empty;
    }
    glass1
    {
        Cmu             0.09;
        kappa           0.41;
        E               9.8;
        type            epsilonWallFunction;
        value           nonuniform List<scalar> 9(0.000547485 0.00136189 0.00244496 0.0038979 0.00586461 0.00856341 0.0115563 0.0121286 0.011134);
    }
    glass2
    {
        Cmu             0.09;
        kappa           0.41;
        E               9.8;
        type            epsilonWallFunction;
        value           nonuniform List<scalar> 2(0.00135452 0.00107888);
    }
    sun
    {
        Cmu             0.09;
        kappa           0.41;
        E               9.8;
        type            epsilonWallFunction;
        value           nonuniform List<scalar> 
14
(
0.000547485
0.000721781
0.000768231
0.000889281
0.00101445
0.00114492
0.00128824
0.00142056
0.00150822
0.00152799
0.00146509
0.0013178
0.001098
0.000837207
)
;
    }
    heatsource1
    {
        Cmu             0.09;
        kappa           0.41;
        E               9.8;
        type            epsilonWallFunction;
        value           nonuniform List<scalar> 3(9.49515e-05 0.00016136 0.000227516);
    }
    heatsource2
    {
        Cmu             0.09;
        kappa           0.41;
        E               9.8;
        type            epsilonWallFunction;
        value           nonuniform List<scalar> 4(0.000656906 0.000177941 0.000177941 0.000782689);
    }
    Table_master
    {
        Cmu             0.09;
        kappa           0.41;
        E               9.8;
        type            epsilonWallFunction;
        value           nonuniform List<scalar> 9(0.000248282 0.00016808 0.000117905 8.57045e-05 6.4371e-05 4.97856e-05 3.95383e-05 3.22336e-05 2.70721e-05);
    }
    Table_slave
    {
        Cmu             0.09;
        kappa           0.41;
        E               9.8;
        type            epsilonWallFunction;
        value           nonuniform List<scalar> 9(0.000357605 0.000266007 0.000210483 0.000173172 0.000144827 0.000122326 0.000102943 8.50189e-05 6.72077e-05);
    }
    inlet
    {
        type            turbulentMixingLengthDissipationRateInlet;
        mixingLength    0.01;
        phi             phi;
        k               k;
        value           uniform 0.000101881;
    }
    outlet
    {
        type            zeroGradient;
    }
}


// ************************************************************************* //
