/*--------------------------------*- C++ -*----------------------------------*=========                 |
  \      /  F ield         | OpenFOAM: The Open Source CFD Toolbox
   \    /   O peration     | Website:  https://openfoam.org
    \  /    A nd           | Version:  6
     \/     M anipulation  |
\*---------------------------------------------------------------------------*/
FoamFile
{
    version     2.0;
    format      ascii;
    class       volScalarField;
    location    "1200";
    object      PPD;
}
// * * * * * * * * * * * * * * * * * * * * * * * * * * * * * * * * * * * * * //

dimensions      [0 0 0 0 0 0 0];

internalField   nonuniform List<scalar> 
459
(
56.8080488987069
44.88212962803955
43.468971204138306
42.213928817612434
41.414752632811144
40.99308674042026
40.934268036146975
41.252611802963045
41.92316731857666
43.010555849388936
44.6582881415438
46.938793036012584
49.95836935038037
50.69022790685711
51.10539341418907
54.87596070243243
54.17354159772512
53.913331376125804
54.04343687109762
54.22558297585331
54.407647134494276
54.56376119353865
54.318704477826785
54.296230997699624
54.347813153297295
54.43504374509576
54.54714630525785
54.690065842457344
54.9080697061337
55.2036251415717
55.746092775067694
56.22796870011845
56.487728464566366
57.21446856604219
54.505698144795765
46.00644041351692
45.54798367715571
44.41855422933416
43.751176673753676
43.39919202197363
43.35818535849887
43.54471097206312
43.87196190221953
44.45448470016528
45.48227255867779
47.046709537294156
49.31506042527382
50.19765869234608
50.32723231429645
50.301314639671034
50.27539843004623
53.04559297587376
53.601082985803096
53.418946850435034
53.57506300531414
53.55863595859873
53.32675309465692
53.248354553488305
53.29067408027126
53.37409541015027
53.43976274514122
53.49545299767356
53.556420755162044
53.60059760742887
53.707786852039675
53.86814276018775
54.33469532161575
55.18810667862338
55.578185671214435
55.211341660818945
56.673008519634195
46.13361319580155
47.50014009109877
46.991568864680076
46.894581910408746
46.8858696238123
47.0169288096384
46.993330496851335
46.69429741878928
46.33653477618677
46.274644564974956
46.82552846637025
48.184625839213126
49.99041970551908
50.17174844387905
50.301314639671034
50.32723231429645
48.081913837573076
50.2423427686284
50.85612462622483
51.36029204936904
52.00567665150027
52.43297322358034
52.65069938437953
53.16369911854233
53.55891199638367
53.7335480304958
53.86461808121922
53.93617529890438
53.97662502679954
53.96675854748677
53.7720491739264
53.93754182201178
54.953849125889974
54.47259534281831
51.796505157639
60.69259958183377
46.417396461180466
49.06480419106939
49.69489642339938
50.74536576558293
51.66436549649574
52.30160562528263
51.68489040449263
49.88045449289374
47.83369774923459
46.36385094246121
45.841083328272134
46.49289445263496
48.03622158112681
49.863847501312875
50.43091746023939
48.965672021009034
46.84089292575168
47.19094600004422
48.76632024379011
50.264886346406705
51.5880139981542
52.81086520390962
53.764857632947255
54.23097115951616
54.25027991636055
54.29815141438301
54.45108012434951
54.61785505079046
54.91523670283445
55.33273834019071
56.064184868039945
57.35949806672418
56.77334379928127
55.99410502214062
53.48071977960878
49.34807395239729
65.4338570578
47.48615705164037
50.550962945696796
52.358728950352045
55.26264159125371
58.459583146426716
59.271080833005186
55.56223527351697
51.361740621409155
47.759142400329
45.42865500508571
44.45515619366352
44.81541502819758
46.183523932758156
48.007750806175046
49.32896510951779
49.36384215269764
49.152545292728554
49.70728418620638
51.11592859445357
52.8296424240841
54.43846204266618
55.8716603191433
57.02294554296046
57.629291400419206
58.095500928568825
58.27921781660228
58.39889484979793
58.46630641637519
58.431981054484154
58.4500206232507
58.487418557433806
58.55824771550364
57.68681798794185
56.09247197555594
52.601822505264124
52.1174009104306
59.5678688095484
58.99341524833785
49.96829938574019
70.07110394348268
49.79619530203301
53.43868314991167
55.38246082317201
59.36163173553307
61.05827304774201
58.79124894006408
54.235651387573846
49.832717980233284
46.098593017448884
43.65513417676443
42.787841058122865
43.43248858731413
45.20697069682278
47.61399542547501
49.86789892582168
51.343806768291586
52.3909590419465
53.679497623971
55.391949350167096
56.53966829715914
57.473775930201406
58.22490784750383
58.845422312182905
59.38741934635396
59.825454474689934
60.1599490223279
60.3912677390868
60.5196847502747
60.49400677896715
60.31418525218307
60.03134765522391
59.61940496046784
58.40635787839011
56.38197541768723
52.720492564683084
52.564553761084795
53.41744299082779
53.41208655633723
54.189783329975725
74.47141524381477
54.99512676507503
61.78917780450396
60.66890506775361
60.45757485824039
58.422276989444725
54.908697730247624
50.480692014229724
46.07995752756309
42.68294312502765
40.93345134994037
40.97970812304327
42.62722424783739
45.46929552891958
49.05747937700741
52.63378474004422
54.199562334027526
55.47417765839881
56.64353514983993
57.70702881457676
58.66455289325731
59.464768591999416
60.134233874396216
60.64803332959761
61.05827304774201
61.39103575430077
61.621103712638174
61.774338590392524
61.774338590392524
61.67219494344826
61.365456964363986
60.93015260776534
60.416956550440304
59.722448910080054
57.689063627946126
54.292973138073506
52.92260151355636
52.217989275877756
50.84447384277225
55.64945241586931
80.38125582140289
72.03594862825337
69.87332525395897
64.74107223639709
61.139913819945114
56.014347148772785
49.787205384376065
43.894734160407936
39.576269278742956
37.43592714941038
37.57093659998472
39.71918993433783
43.385469528485906
48.22703852737326
52.76857522891457
54.954002937272406
56.69546199676327
58.06961436521452
59.12944346491853
60.00561974812433
60.7506620061926
61.365456964363986
61.85091202044733
62.23332735298807
62.487839900179175
62.69119309432851
62.79278217197212
62.79278217197212
62.74199499853814
62.56412445439977
62.284257938478454
61.85091202044733
61.339875077628605
60.72500906289058
60.03134765522391
59.36163173553307
58.15014350278101
57.447861980906424
54.13046223302932
49.46358969961862
87.70797999039944
83.13803768514136
76.27878285416489
67.23584326192253
54.27321203511865
41.94482793047149
33.609867699410145
29.475237927290948
28.88405207108198
31.162593820448336
35.74106882241672
41.98936362244129
49.3176207102037
52.71655645071352
56.124038127590204
58.250783975481596
59.64516950827013
60.64803332959761
61.39103575430077
62.029467232512516
62.56412445439977
62.742739754925
62.789572600583966
62.78322561157024
62.73025456045261
62.599321795753966
62.38581568981638
62.07127872839091
61.64105609975671
61.123237856587885
60.50884036267732
59.83313029506513
59.17428416741731
58.42524330176001
57.5857717723381
56.86131478739119
56.344955484636536
55.976275626426606
55.27609998469401
53.7823621276924
98.95349274671936
74.03036470524076
34.46812946509627
8.254494320106119
5.738505500213847
13.445730960122845
25.979781003449773
36.93436727162196
45.567692676930875
51.59878114443534
55.34415381057519
57.27560570266296
58.494078103944865
59.47180751809539
60.211335179683864
60.772379253146305
61.19829734715128
61.46974357772147
61.618607403319295
61.646425533243814
61.61506682983357
61.506885844645694
61.36633030656886
61.15559600955311
60.919643055062416
60.635376103215975
60.34012601346688
60.07702749123064
59.83865411841012
59.67665643942609
59.54574720613153
59.471919396519425
59.42732775405978
59.50233309686058
59.977391306821225
61.635646357827135
67.5377666940874
59.5439189983936
92.8672472620986
26.025056973757145
5.073462926527924
12.590200111895527
22.451918538052084
31.03292906084441
38.38591784950786
44.517311259476
49.35176819548287
52.86075632288424
55.296001316119344
56.997233814468736
58.257435718830415
59.166144817210586
59.806533819735314
60.280835828967085
60.61715236011059
60.823259916108015
60.937034707613655
61.02135738109683
61.03454153600855
61.046837622191426
61.02208619478995
60.98291308059871
60.90276764083938
60.837958223692176
60.77306795676966
60.72794953579795
60.73049022694909
60.85384279226369
61.17421879654179
61.71368942562321
62.34944654643276
62.952169669431626
63.70144762803713
66.89902930484686
61.62470708311965
66.29570466751505
19.3403906552728
24.526342703228565
20.010430218104077
8.462818128698416
22.699569145623016
31.664422604712115
37.91660206692135
42.998498940775036
47.237337736505495
50.762275193982
53.595896872117116
55.773461876492874
57.35843032239719
58.47226424092854
59.223531545166814
59.70350439864178
59.99069918561115
60.13805265218817
60.19738919361958
60.166553647996764
60.12134733676642
60.077419370973615
60.04276581278914
60.041638351648864
60.03642772770384
60.0555311171747
60.103904648053025
60.192398269089814
60.33901594376136
60.58757716849357
60.94564013516954
61.51370078633297
62.516097222943365
64.32060284474255
65.80980313110621
66.03341357409661
66.30615577198081
62.33723550858431
62.71422582132602
57.6060508593758
)
;

boundaryField
{
    ".*"
    {
        type            zeroGradient;
    }
}


// ************************************************************************* //
