// -*- C++ -*-
// File generated by PyFoam - sorry for the ugliness

FoamFile
{
 version 2.0;
 format ascii;
 class volVectorField;
 location "1200";
 object U;
}

dimensions [ 0 1 -1 0 0 0 0 ];

internalField nonuniform List<vector> 459
(
  (0.0319692 0.088952 0)
  (-0.173296 0.0269194 0)
  (-0.199367 0.0177646 0)
  (-0.23011 0.0113277 0)
  (-0.251025 0.0043062 0)
  (-0.26097 -0.00304913 0)
  (-0.258298 -0.0107147 0)
  (-0.242867 -0.0185764 0)
  (-0.215895 -0.0256088 0)
  (-0.180116 -0.0306195 0)
  (-0.139526 -0.0328063 0)
  (-0.0983689 -0.0317955 0)
  (-0.0606052 -0.0276052 0)
  (-0.0312848 -0.0211969 0)
  (-0.0268257 -0.0147611 0)
  (-0.00650599 0.00980593 0)
  (-0.0324064 -0.0188531 0)
  (-0.00823041 -0.029778 0)
  (0.0181734 -0.0230093 0)
  (0.0354981 -0.0158392 0)
  (0.0496107 -0.0102877 0)
  (0.0584973 -0.00604903 0)
  (0.0631317 -0.00381329 0)
  (0.0652404 -0.00288962 0)
  (0.0663142 -0.00247028 0)
  (0.0670138 -0.00220199 0)
  (0.0674499 -0.00198402 0)
  (0.0675555 -0.00173528 0)
  (0.0671262 -0.00127439 0)
  (0.0655972 -0.000219672 0)
  (0.0617521 0.00196127 0)
  (0.0542668 0.00429857 0)
  (0.0473083 0.0064629 0)
  (-0.013062 0.0233605 0)
  (0.208026 0.181827 0)
  (-0.159763 0.0712155 0)
  (-0.159588 0.0535813 0)
  (-0.191161 0.0399962 0)
  (-0.211845 0.0246874 0)
  (-0.222054 0.00772582 0)
  (-0.220035 -0.0108488 0)
  (-0.205834 -0.0296124 0)
  (-0.181291 -0.0456951 0)
  (-0.149467 -0.0565895 0)
  (-0.114179 -0.0610647 0)
  (-0.0790491 -0.0589792 0)
  (-0.0471971 -0.0507761 0)
  (-0.0214023 -0.037904 0)
  (-0.00602525 -0.0240732 0)
  (0.00714557 -0.00695666 0)
  (0.00434578 0.0172768 0)
  (0.0696286 0.0400864 0)
  (0.0261102 -0.0201615 0)
  (0.035703 -0.0350296 0)
  (0.0480373 -0.0311466 0)
  (0.0578478 -0.0223824 0)
  (0.0649753 -0.0139536 0)
  (0.0680979 -0.00601284 0)
  (0.0687093 -0.00150203 0)
  (0.0686457 0.000355431 0)
  (0.0687494 0.0011552 0)
  (0.0689609 0.00162645 0)
  (0.0691156 0.00200485 0)
  (0.0691716 0.00248766 0)
  (0.0690707 0.00340849 0)
  (0.0682791 0.00568685 0)
  (0.0643205 0.0120035 0)
  (0.0543236 0.0173607 0)
  (0.0502569 0.0213003 0)
  (-0.0556842 0.050162 0)
  (0.369059 0.271576 0)
  (-0.17401 0.112652 0)
  (-0.11952 0.0861955 0)
  (-0.149664 0.0624015 0)
  (-0.167871 0.0372845 0)
  (-0.176829 0.00981106 0)
  (-0.173562 -0.0200608 0)
  (-0.158632 -0.049527 0)
  (-0.135052 -0.073629 0)
  (-0.106487 -0.0887625 0)
  (-0.0764289 -0.0938518 0)
  (-0.0475295 -0.0894967 0)
  (-0.0216836 -0.0767763 0)
  (5.15083e-06 -0.0574649 0)
  (0.0152394 -0.0346547 0)
  (0.0253523 -0.00919521 0)
  (0.0290873 0.0280979 0)
  (0.12228 -0.0282973 0)
  (0.0805383 -0.041003 0)
  (0.0739981 -0.0421393 0)
  (0.075416 -0.0362646 0)
  (0.076684 -0.027402 0)
  (0.0778868 -0.01952 0)
  (0.0764474 -0.0154329 0)
  (0.0712795 -0.0106746 0)
  (0.0675405 -0.00808289 0)
  (0.0658384 -0.0066013 0)
  (0.0650812 -0.00565175 0)
  (0.0646533 -0.00499512 0)
  (0.0645369 -0.00442675 0)
  (0.0652189 -0.00353917 0)
  (0.0679105 -0.00028795 0)
  (0.0655411 0.0172255 0)
  (0.0513392 0.0294104 0)
  (0.0563299 0.0376195 0)
  (-0.0945218 0.0769805 0)
  (0.514109 0.343545 0)
  (-0.206256 0.149127 0)
  (-0.0778947 0.113779 0)
  (-0.105501 0.0812451 0)
  (-0.118173 0.0484116 0)
  (-0.122732 0.0115005 0)
  (-0.113988 -0.0298313 0)
  (-0.0963689 -0.0695011 0)
  (-0.0738053 -0.0998985 0)
  (-0.0500059 -0.117289 0)
  (-0.0272539 -0.121733 0)
  (-0.00665739 -0.114903 0)
  (0.0115989 -0.0981372 0)
  (0.0267995 -0.0754083 0)
  (0.0403535 -0.0490961 0)
  (0.0554301 -0.0208615 0)
  (0.077271 0.0113282 0)
  (0.109705 0.0230372 0)
  (0.113755 -0.0225916 0)
  (0.0980143 -0.0357607 0)
  (0.0879777 -0.0356332 0)
  (0.0822257 -0.03133 0)
  (0.0778596 -0.0245851 0)
  (0.0749507 -0.0159229 0)
  (0.0759967 -0.00929261 0)
  (0.0807472 -0.00678967 0)
  (0.0845248 -0.00537268 0)
  (0.0866553 -0.00435794 0)
  (0.0875917 -0.0032503 0)
  (0.0867744 -0.00173203 0)
  (0.0833312 0.000397694 0)
  (0.0759929 0.00346673 0)
  (0.0617309 0.0080786 0)
  (0.0497868 0.028652 0)
  (0.0372203 0.0454308 0)
  (0.060048 0.0581454 0)
  (-0.141092 0.0992519 0)
  (0.638984 0.399091 0)
  (-0.246502 0.178639 0)
  (-0.0375345 0.129309 0)
  (-0.0591747 0.0916905 0)
  (-0.0633864 0.0539499 0)
  (-0.0587316 0.00893607 0)
  (-0.037522 -0.0438707 0)
  (-0.0171688 -0.0898277 0)
  (0.00197577 -0.122038 0)
  (0.0176408 -0.137713 0)
  (0.0297634 -0.13908 0)
  (0.0390073 -0.129335 0)
  (0.0461644 -0.111021 0)
  (0.0523694 -0.0871526 0)
  (0.0587591 -0.0608398 0)
  (0.0671266 -0.0356273 0)
  (0.08009 -0.0179626 0)
  (0.0906661 -0.0199097 0)
  (0.0910436 -0.029831 0)
  (0.0836771 -0.0315516 0)
  (0.0744326 -0.0288953 0)
  (0.066721 -0.0248475 0)
  (0.0607523 -0.0197242 0)
  (0.0569247 -0.0135582 0)
  (0.0560499 -0.00701601 0)
  (0.0578274 -0.00377553 0)
  (0.0599279 -0.00251649 0)
  (0.0618602 -0.00155039 0)
  (0.063585 0.000221556 0)
  (0.0647079 0.00326912 0)
  (0.0641269 0.00772972 0)
  (0.0612713 0.0138293 0)
  (0.0553711 0.0222618 0)
  (0.0483522 0.0379333 0)
  (0.0370618 0.0567284 0)
  (0.0676108 0.0776453 0)
  (-0.0394853 0.110509 0)
  (0.0485149 0.0253814 0)
  (-0.0684727 -0.0369662 0)
  (-0.286641 -0.0606773 0)
  (0.729535 0.444984 0)
  (-0.285939 0.197812 0)
  (-0.00667509 0.123816 0)
  (-0.00956961 0.0898207 0)
  (0.000332245 0.0487031 0)
  (0.0293884 -0.00773698 0)
  (0.0564539 -0.0645272 0)
  (0.0751803 -0.107326 0)
  (0.0860129 -0.134071 0)
  (0.0899917 -0.145439 0)
  (0.0889036 -0.143564 0)
  (0.0844783 -0.131354 0)
  (0.0784255 -0.111839 0)
  (0.0724897 -0.0881073 0)
  (0.0680082 -0.0630743 0)
  (0.066118 -0.04019 0)
  (0.0673334 -0.0237515 0)
  (0.0679972 -0.0186187 0)
  (0.0642331 -0.0200023 0)
  (0.0564617 -0.0211328 0)
  (0.0476193 -0.0200859 0)
  (0.0400262 -0.0177191 0)
  (0.0342787 -0.0145233 0)
  (0.0307447 -0.0107141 0)
  (0.0297106 -0.00712511 0)
  (0.0308367 -0.00561316 0)
  (0.033005 -0.00529801 0)
  (0.0357647 -0.00481339 0)
  (0.0389329 -0.00307021 0)
  (0.0424517 0.000790305 0)
  (0.0453313 0.00689106 0)
  (0.0469687 0.0150352 0)
  (0.0475359 0.0255081 0)
  (0.0484858 0.04003 0)
  (0.0467342 0.0582765 0)
  (0.0758216 0.0827276 0)
  (0.0473233 0.102173 0)
  (0.0979897 0.067899 0)
  (0.12246 0.0446763 0)
  (-0.137382 -0.00886758 0)
  (0.788202 0.486865 0)
  (-0.304035 0.181637 0)
  (0.0258796 0.0662916 0)
  (0.0604128 0.0523475 0)
  (0.0926131 0.0178138 0)
  (0.136841 -0.0391989 0)
  (0.163516 -0.0866645 0)
  (0.174849 -0.118726 0)
  (0.173117 -0.135883 0)
  (0.161438 -0.139887 0)
  (0.143306 -0.133053 0)
  (0.121949 -0.118215 0)
  (0.100147 -0.0983295 0)
  (0.0801957 -0.0760394 0)
  (0.06347 -0.0534803 0)
  (0.0508829 -0.0336346 0)
  (0.0424217 -0.0195903 0)
  (0.0361103 -0.0133467 0)
  (0.0294471 -0.0124669 0)
  (0.0218305 -0.0129231 0)
  (0.0143439 -0.0126413 0)
  (0.00807068 -0.0116488 0)
  (0.00344816 -0.0102364 0)
  (0.000765582 -0.00862711 0)
  (0.00016874 -0.00741879 0)
  (0.00129225 -0.0074065 0)
  (0.00343056 -0.00802003 0)
  (0.00629031 -0.00829803 0)
  (0.00990109 -0.00730319 0)
  (0.0144271 -0.00397263 0)
  (0.0210128 0.00266745 0)
  (0.0272212 0.0114524 0)
  (0.0335151 0.0218553 0)
  (0.0416755 0.0345324 0)
  (0.0499453 0.0491482 0)
  (0.076349 0.0688611 0)
  (0.0894925 0.0763943 0)
  (0.126725 0.0497753 0)
  (0.169029 0.041538 0)
  (-0.0311722 0.0955897 0)
  (0.896959 0.485392 0)
  (-0.0531174 0.159411 0)
  (0.122346 -0.0248944 0)
  (0.216752 -0.0653115 0)
  (0.264251 -0.0816431 0)
  (0.286669 -0.0988898 0)
  (0.291518 -0.113438 0)
  (0.279479 -0.121448 0)
  (0.253275 -0.1221 0)
  (0.217542 -0.115871 0)
  (0.177184 -0.10383 0)
  (0.136392 -0.0876748 0)
  (0.0983941 -0.0694324 0)
  (0.0654714 -0.0507926 0)
  (0.0383962 -0.0327504 0)
  (0.0185176 -0.017987 0)
  (0.0052458 -0.00871494 0)
  (-0.00336826 -0.00507945 0)
  (-0.00981489 -0.005053 0)
  (-0.0157525 -0.00595184 0)
  (-0.0211109 -0.00658392 0)
  (-0.0255175 -0.00687347 0)
  (-0.0287746 -0.0069897 0)
  (-0.0307541 -0.00714719 0)
  (-0.0314737 -0.00766605 0)
  (-0.0312733 -0.00876281 0)
  (-0.0305922 -0.0101353 0)
  (-0.0295849 -0.0112902 0)
  (-0.0280993 -0.011703 0)
  (-0.0257065 -0.0107526 0)
  (-0.0213553 -0.0076636 0)
  (-0.0118246 -0.00177411 0)
  (-0.00235617 0.00584592 0)
  (0.00960144 0.0138838 0)
  (0.0220115 0.02065 0)
  (0.0443469 0.0288292 0)
  (0.0641787 0.022361 0)
  (0.0829066 -0.00342204 0)
  (0.143298 0.0518807 0)
  (-0.477645 0.219057 0)
  (1.05019 0.428037 0)
  (0.497688 0.279126 0)
  (0.517366 0.171918 0)
  (0.552017 0.0897227 0)
  (0.528925 0.0324358 0)
  (0.477813 -0.0111326 0)
  (0.419003 -0.0411732 0)
  (0.35536 -0.05788 0)
  (0.288026 -0.0633513 0)
  (0.220708 -0.0605387 0)
  (0.15746 -0.052106 0)
  (0.101401 -0.0405011 0)
  (0.0543045 -0.0279827 0)
  (0.0166183 -0.0161117 0)
  (-0.013491 -0.00571751 0)
  (-0.0298815 -0.000690238 0)
  (-0.0391833 0.00115591 0)
  (-0.0445047 0.00104435 0)
  (-0.0483413 -6.40237e-05 0)
  (-0.0519051 -0.00131588 0)
  (-0.0554062 -0.00241787 0)
  (-0.058579 -0.00341334 0)
  (-0.061321 -0.00439743 0)
  (-0.0636227 -0.00547474 0)
  (-0.0656365 -0.00672422 0)
  (-0.0677187 -0.00811256 0)
  (-0.0702771 -0.0093741 0)
  (-0.0736509 -0.010109 0)
  (-0.0781735 -0.00981576 0)
  (-0.0842998 -0.00784436 0)
  (-0.0926457 -0.00341647 0)
  (-0.103088 0.00406527 0)
  (-0.114236 0.0143691 0)
  (-0.130321 0.0275812 0)
  (-0.155511 0.0434508 0)
  (-0.191928 0.0603801 0)
  (-0.243953 0.0738864 0)
  (-0.305668 0.0816811 0)
  (-0.382866 0.0847076 0)
  (-0.65674 0.0784625 0)
  (-0.16912 -0.0230175 0)
  (0.0972215 -0.0437243 0)
  (0.174393 -0.0607503 0)
  (0.159216 -0.0511222 0)
  (0.137076 -0.03618 0)
  (0.110324 -0.0226475 0)
  (0.0756117 -0.0110919 0)
  (0.0380082 -0.00228351 0)
  (0.00134792 0.00384599 0)
  (-0.0290465 0.00710958 0)
  (-0.0505851 0.00823832 0)
  (-0.0650898 0.00811061 0)
  (-0.0728977 0.00656368 0)
  (-0.0767868 0.00413578 0)
  (-0.0788766 0.00177471 0)
  (-0.0802609 -0.000585591 0)
  (-0.0817174 -0.00298084 0)
  (-0.0835425 -0.00527418 0)
  (-0.0856901 -0.00735561 0)
  (-0.0881852 -0.00911761 0)
  (-0.0909178 -0.0103683 0)
  (-0.0937683 -0.0112119 0)
  (-0.0968468 -0.011696 0)
  (-0.100366 -0.0117864 0)
  (-0.10448 -0.011304 0)
  (-0.109192 -0.00992445 0)
  (-0.114314 -0.00720779 0)
  (-0.119462 -0.00263518 0)
  (-0.124049 0.00409252 0)
  (-0.127715 0.0133587 0)
  (-0.130716 0.026089 0)
  (-0.133306 0.0428171 0)
  (-0.136283 0.0629169 0)
  (-0.139789 0.0832013 0)
  (-0.139915 0.0954197 0)
  (-0.117432 0.0851285 0)
  (-0.038407 0.0282191 0)
  (-0.209258 -0.18778 0)
  (0.0423032 0.196149 0)
  (0.00796246 0.060822 0)
  (-0.0362092 0.0103588 0)
  (-0.0625726 0.0102699 0)
  (-0.0829817 0.0172863 0)
  (-0.0975349 0.0228163 0)
  (-0.106268 0.027044 0)
  (-0.112411 0.0301262 0)
  (-0.116419 0.0314514 0)
  (-0.118399 0.0310617 0)
  (-0.118565 0.0300704 0)
  (-0.117374 0.0293148 0)
  (-0.115274 0.0288803 0)
  (-0.113085 0.0289757 0)
  (-0.111188 0.0299659 0)
  (-0.109685 0.0317168 0)
  (-0.108627 0.0338933 0)
  (-0.107997 0.0360794 0)
  (-0.107746 0.0378138 0)
  (-0.107847 0.0386832 0)
  (-0.108233 0.0383301 0)
  (-0.108951 0.0370618 0)
  (-0.110011 0.0353433 0)
  (-0.111418 0.0333104 0)
  (-0.113125 0.0310782 0)
  (-0.115018 0.0287605 0)
  (-0.116864 0.026423 0)
  (-0.118182 0.0244872 0)
  (-0.118205 0.0241292 0)
  (-0.115774 0.0264671 0)
  (-0.109425 0.0325625 0)
  (-0.0979715 0.0433888 0)
  (-0.0815549 0.0587949 0)
  (-0.0616587 0.0746788 0)
  (-0.0416287 0.081605 0)
  (0.0418041 0.0305716 0)
  (0.150326 -0.0599831 0)
  (-0.0516308 -0.0628805 0)
  (-0.0968105 -0.34826 0)
  (-0.44859 -0.138869 0)
  (-0.335707 0.0439732 0)
  (-0.296762 -0.0431695 0)
  (-0.256465 -0.0494853 0)
  (-0.245946 -0.0423284 0)
  (-0.238058 -0.0355308 0)
  (-0.228338 -0.0313057 0)
  (-0.21591 -0.0293223 0)
  (-0.201356 -0.0297614 0)
  (-0.185948 -0.0331157 0)
  (-0.171252 -0.0390067 0)
  (-0.158384 -0.0462018 0)
  (-0.147773 -0.0537286 0)
  (-0.139417 -0.061379 0)
  (-0.133085 -0.0691333 0)
  (-0.128331 -0.0768289 0)
  (-0.124723 -0.084311 0)
  (-0.12196 -0.0912845 0)
  (-0.119845 -0.0973047 0)
  (-0.118273 -0.101911 0)
  (-0.117216 -0.10474 0)
  (-0.116707 -0.105582 0)
  (-0.116739 -0.104598 0)
  (-0.117203 -0.102277 0)
  (-0.117916 -0.0987279 0)
  (-0.118647 -0.0939694 0)
  (-0.119085 -0.0879053 0)
  (-0.118841 -0.0802961 0)
  (-0.117389 -0.0712223 0)
  (-0.113735 -0.0610963 0)
  (-0.106041 -0.0498841 0)
  (-0.0917296 -0.0372668 0)
  (-0.0686931 -0.0225511 0)
  (-0.0375366 -0.00527469 0)
  (0.00797862 0.0140635 0)
  (0.0484118 0.00511549 0)
  (0.108286 -0.0494093 0)
  (0.119013 -0.0901212 0)
  (-0.516866 0.0100328 0)
)
;

boundaryField
{
  floor
  {
    type noSlip;
  }
  ceiling
  {
    type noSlip;
  }
  sWall
  {
    type noSlip;
  }
  nWall
  {
    type noSlip;
  }
  sideWalls
  {
    type empty;
  }
  glass1
  {
    type noSlip;
  }
  glass2
  {
    type noSlip;
  }
  sun
  {
    type noSlip;
  }
  heatsource1
  {
    type noSlip;
  }
  heatsource2
  {
    type noSlip;
  }
  Table_master
  {
    type noSlip;
  }
  Table_slave
  {
    type noSlip;
  }
  inlet
  {
    type fixedValue;
    value uniform (0.277164 -0.114805 0);
  }
  outlet
  {
    type zeroGradient;
  }
} 	// ************************************************************************* //

