/*--------------------------------*- C++ -*----------------------------------*\
  =========                 |
  \\      /  F ield         | OpenFOAM: The Open Source CFD Toolbox
   \\    /   O peration     | Website:  https://openfoam.org
    \\  /    A nd           | Version:  6
     \\/     M anipulation  |
\*---------------------------------------------------------------------------*/
FoamFile
{
    version     2.0;
    format      ascii;
    class       volScalarField;
    location    "1200";
    object      epsilon;
}
// * * * * * * * * * * * * * * * * * * * * * * * * * * * * * * * * * * * * * //

dimensions      [0 2 -3 0 0 0 0];

internalField   nonuniform List<scalar> 
459
(
0.000530076
0.00069762
0.000740776
0.000856765
0.000976152
0.00109962
0.00123354
0.00136267
0.00145231
0.00148028
0.00143087
0.00130134
0.00110368
0.000869917
0.000647148
4.94453e-05
8.65939e-05
0.000124335
0.000125117
0.000113764
9.90814e-05
8.1758e-05
6.65606e-05
5.45122e-05
4.51327e-05
3.77956e-05
3.19946e-05
2.73648e-05
2.36161e-05
2.04853e-05
1.77483e-05
1.51947e-05
1.36791e-05
1.04859e-05
0.00132837
0.00187002
0.000660307
0.000643579
0.000681037
0.000741097
0.000827575
0.000931073
0.00102021
0.00106658
0.001052
0.000974277
0.000843907
0.000688869
0.000568755
0.000703512
0.000156134
5.80662e-05
0.000137575
0.000148935
0.000137327
0.000118053
9.95838e-05
9.04418e-05
7.3179e-05
5.78717e-05
4.57701e-05
3.64624e-05
2.9335e-05
2.38716e-05
1.96919e-05
1.66048e-05
1.47152e-05
1.39152e-05
3.50937e-05
2.39898e-05
0.0023969
0.00448952
0.000824267
0.0006236
0.000663741
0.000759597
0.000896309
0.00105174
0.00117781
0.00124048
0.00122758
0.00114496
0.00100489
0.000841787
0.000696245
0.000629164
0.000784394
0.000408035
0.000305382
0.00023665
0.000186219
0.000148475
0.000126135
0.000233617
0.000160005
0.000113476
8.33073e-05
6.31322e-05
4.92232e-05
3.93841e-05
3.23188e-05
2.72831e-05
2.06742e-05
1.73948e-05
6.65202e-05
3.79539e-05
0.00383811
0.00919339
0.00131282
0.0006536
0.000676023
0.000820101
0.00104238
0.00126966
0.00142195
0.00147897
0.00144668
0.00134001
0.00116575
0.00097381
0.000803561
0.000691916
0.00067639
0.00127906
0.000732507
0.000446361
0.000302025
0.000219392
0.000167969
0.000144295
0.000333044
0.000250695
0.000200771
0.000167141
0.000141347
0.000120406
0.000102281
8.53519e-05
6.82724e-05
3.99618e-05
2.65648e-05
0.000113659
5.1317e-05
0.00579662
0.0162102
0.00259677
0.000832291
0.000758952
0.00097649
0.00137563
0.00166326
0.00179654
0.00181028
0.00173295
0.00157747
0.00135798
0.0011083
0.00086858
0.000673054
0.000541336
0.000490587
0.000403315
0.000320918
0.000253679
0.000201115
0.000161188
0.000134393
0.000129429
0.000119858
0.000110298
0.000100795
9.08836e-05
8.07892e-05
7.09693e-05
6.17665e-05
5.32911e-05
4.19405e-05
3.22211e-05
8.03656e-05
5.74251e-05
9.23487e-05
0.000157803
0.000221787
0.00849007
0.0239
0.00580048
0.00171509
0.00130755
0.00171509
0.00219535
0.00236735
0.00237161
0.0022883
0.0021371
0.00191067
0.00161376
0.0012786
0.00095489
0.000689424
0.000506651
0.000402169
0.000335214
0.000279099
0.000228091
0.000184884
0.000151292
0.000128426
0.000117069
0.000111791
0.000108209
0.000103866
9.74419e-05
8.79892e-05
7.63002e-05
6.46657e-05
5.41924e-05
4.48524e-05
3.93187e-05
5.78124e-05
5.92954e-05
7.14638e-05
0.000294733
0.000256059
0.0114855
0.0284289
0.0117138
0.00544087
0.00412572
0.0040895
0.00384685
0.00353691
0.0032438
0.0029776
0.00269713
0.00235407
0.00193745
0.00148341
0.0010551
0.000715934
0.000492453
0.000367309
0.000296166
0.000243756
0.000198994
0.00016308
0.000137571
0.000122716
0.000117501
0.000118217
0.000120857
0.000123283
0.000124034
0.000121104
0.000110189
9.69923e-05
8.4137e-05
7.31324e-05
6.93699e-05
8.09524e-05
0.000105636
0.000178553
0.000418172
0.000393138
0.0120621
0.0297073
0.0171745
0.0122971
0.00965445
0.00752019
0.00600308
0.00500277
0.00435418
0.00388429
0.00343739
0.00291305
0.00230468
0.00167335
0.00110362
0.000686215
0.000436795
0.000307628
0.000241087
0.000196451
0.000162457
0.000138657
0.000124783
0.000119753
0.00012187
0.000128901
0.000139111
0.000151997
0.000167607
0.000185713
0.000204762
0.000213273
0.000224311
0.000248284
0.000298644
0.000463547
0.000900469
0.0018197
0.00536335
0.00144124
0.0110694
0.0181248
0.0145569
0.0111667
0.00878954
0.00730946
0.00643048
0.00590621
0.00551473
0.00505571
0.0043937
0.00351134
0.00255007
0.00165631
0.000918277
0.000503713
0.000318716
0.000230595
0.000182235
0.000150622
0.000129499
0.000117234
0.000112584
0.000114204
0.000120861
0.000131742
0.000146816
0.000166987
0.000193991
0.000230411
0.00027978
0.000347515
0.000441725
0.000586798
0.000799828
0.00108672
0.00140875
0.00167679
0.0018711
0.00112375
0.00368111
0.00652411
0.00842012
0.00892738
0.00892112
0.00844449
0.00742707
0.00598669
0.00433165
0.00268629
0.00160809
0.000927142
0.000527275
0.00032415
0.000226247
0.000175781
0.000146242
0.000127061
0.000114664
0.00010791
0.000106017
0.000108129
0.000113656
0.000122442
0.00013484
0.000151811
0.000175077
0.000207463
0.000253414
0.000318877
0.000411003
0.000538884
0.000704772
0.000888401
0.00103314
0.00106684
0.000936291
0.000587289
0.00371898
0.00856606
0.00851526
0.00703639
0.0060556
0.0050453
0.00395635
0.00289065
0.00194692
0.00120521
0.000731037
0.000454129
0.000303442
0.000225827
0.000185127
0.000161463
0.000145688
0.000134221
0.000125784
0.000119979
0.000117054
0.000117072
0.000120162
0.000126714
0.000137432
0.000153394
0.000176186
0.000208131
0.000252536
0.000314028
0.0003988
0.000512979
0.000656837
0.000820489
0.000942003
0.00104847
0.000804189
0.000609388
0.00267432
0.00319264
0.00360537
0.00452568
0.00399803
0.00355298
0.00320495
0.00274276
0.00219533
0.00164306
0.00114931
0.000764965
0.000507067
0.000349663
0.00025599
0.000198762
0.000162239
0.000138264
0.00012279
0.000113684
0.000109597
0.000109704
0.000112791
0.000118474
0.000126712
0.000137697
0.000151851
0.000169891
0.000193018
0.00022284
0.000260417
0.000307852
0.000367796
0.000443709
0.000539271
0.000685701
0.000731953
0.000678893
0.000550913
0.000432471
)
;

boundaryField
{
    floor
    {
        Cmu             0.09;
        kappa           0.41;
        E               9.8;
        type            epsilonWallFunction;
        value           nonuniform List<scalar> 
29
(
0.000647148
4.94453e-05
8.65939e-05
0.000124335
0.000125117
0.000113764
9.90814e-05
8.1758e-05
6.65606e-05
5.45122e-05
4.51327e-05
3.77956e-05
3.19946e-05
2.73648e-05
2.36161e-05
2.04853e-05
1.77483e-05
1.51947e-05
1.36791e-05
1.04859e-05
1.04859e-05
2.39898e-05
3.79539e-05
5.1317e-05
0.000647148
4.94453e-05
5.80662e-05
0.000408035
0.00127906
)
;
    }
    ceiling
    {
        Cmu             0.09;
        kappa           0.41;
        E               9.8;
        type            epsilonWallFunction;
        value           nonuniform List<scalar> 
43
(
0.00267432
0.00319264
0.00360537
0.00452568
0.00399803
0.00355298
0.00320495
0.00274276
0.00219533
0.00164306
0.00114931
0.000764965
0.000507067
0.000349663
0.00025599
0.000198762
0.000162239
0.000138264
0.00012279
0.000113684
0.000109597
0.000109704
0.000112791
0.000118474
0.000126712
0.000137697
0.000151851
0.000169891
0.000193018
0.00022284
0.000260417
0.000307852
0.000367796
0.000443709
0.000539271
0.000685701
0.000731953
0.000678893
0.000550913
0.000432471
0.0110694
0.0181248
0.00371898
)
;
    }
    sWall
    {
        Cmu             0.09;
        kappa           0.41;
        E               9.8;
        type            epsilonWallFunction;
        value           uniform 0.00267432;
    }
    nWall
    {
        Cmu             0.09;
        kappa           0.41;
        E               9.8;
        type            epsilonWallFunction;
        value           nonuniform List<scalar> 6(0.000221787 0.000256059 0.000393138 0.000587289 0.000609388 0.000432471);
    }
    sideWalls
    {
        type            empty;
    }
    glass1
    {
        Cmu             0.09;
        kappa           0.41;
        E               9.8;
        type            epsilonWallFunction;
        value           nonuniform List<scalar> 9(0.000530076 0.00132837 0.0023969 0.00383811 0.00579662 0.00849007 0.0114855 0.0120621 0.0110694);
    }
    glass2
    {
        Cmu             0.09;
        kappa           0.41;
        E               9.8;
        type            epsilonWallFunction;
        value           nonuniform List<scalar> 2(0.00144124 0.00112375);
    }
    sun
    {
        Cmu             0.09;
        kappa           0.41;
        E               9.8;
        type            epsilonWallFunction;
        value           nonuniform List<scalar> 
14
(
0.000530076
0.00069762
0.000740776
0.000856765
0.000976152
0.00109962
0.00123354
0.00136267
0.00145231
0.00148028
0.00143087
0.00130134
0.00110368
0.000869917
)
;
    }
    heatsource1
    {
        Cmu             0.09;
        kappa           0.41;
        E               9.8;
        type            epsilonWallFunction;
        value           nonuniform List<scalar> 3(9.23487e-05 0.000157803 0.000221787);
    }
    heatsource2
    {
        Cmu             0.09;
        kappa           0.41;
        E               9.8;
        type            epsilonWallFunction;
        value           nonuniform List<scalar> 4(0.000703512 0.000156134 0.000156134 0.000784394);
    }
    Table_master
    {
        Cmu             0.09;
        kappa           0.41;
        E               9.8;
        type            epsilonWallFunction;
        value           nonuniform List<scalar> 9(0.000233617 0.000160005 0.000113476 8.33073e-05 6.31322e-05 4.92232e-05 3.93841e-05 3.23188e-05 2.72831e-05);
    }
    Table_slave
    {
        Cmu             0.09;
        kappa           0.41;
        E               9.8;
        type            epsilonWallFunction;
        value           nonuniform List<scalar> 9(0.000333044 0.000250695 0.000200771 0.000167141 0.000141347 0.000120406 0.000102281 8.53519e-05 6.82724e-05);
    }
    inlet
    {
        type            turbulentMixingLengthDissipationRateInlet;
        mixingLength    0.01;
        phi             phi;
        k               k;
        value           uniform 0.000101881;
    }
    outlet
    {
        type            zeroGradient;
    }
}


// ************************************************************************* //
