// -*- C++ -*-
// File generated by PyFoam - sorry for the ugliness

FoamFile
{
 version 2.0;
 format ascii;
 class volVectorField;
 location "1200";
 object U;
}

dimensions [ 0 1 -1 0 0 0 0 ];

internalField nonuniform List<vector> 459
(
  (0.0326323 0.0884814 0)
  (-0.172224 0.0266948 0)
  (-0.197824 0.0178765 0)
  (-0.228602 0.011737 0)
  (-0.250036 0.00503733 0)
  (-0.261111 -0.00197042 0)
  (-0.260309 -0.00928565 0)
  (-0.247135 -0.0168488 0)
  (-0.222617 -0.0238225 0)
  (-0.189031 -0.0290746 0)
  (-0.149999 -0.0317869 0)
  (-0.109456 -0.0316491 0)
  (-0.0711043 -0.0289184 0)
  (-0.0399748 -0.0249034 0)
  (-0.0311784 -0.0214238 0)
  (-0.00439319 0.00903309 0)
  (-0.0292507 -0.0194163 0)
  (-0.00387481 -0.0298048 0)
  (0.0211962 -0.0225096 0)
  (0.0388169 -0.0153319 0)
  (0.0524717 -0.00988767 0)
  (0.0608229 -0.00586454 0)
  (0.0650708 -0.00375159 0)
  (0.0669788 -0.00285971 0)
  (0.0679473 -0.00243957 0)
  (0.0685604 -0.00216526 0)
  (0.068903 -0.00193864 0)
  (0.0689035 -0.00166909 0)
  (0.0683435 -0.00117317 0)
  (0.0666276 -5.17949e-05 0)
  (0.0624891 0.00225207 0)
  (0.0545517 0.00469827 0)
  (0.0470495 0.00680806 0)
  (-0.0133554 0.0231904 0)
  (0.208703 0.180772 0)
  (-0.158984 0.0703067 0)
  (-0.158136 0.0532449 0)
  (-0.189623 0.0403012 0)
  (-0.210683 0.0257744 0)
  (-0.221891 0.00972428 0)
  (-0.221658 -0.00790264 0)
  (-0.209534 -0.0260474 0)
  (-0.187138 -0.0421173 0)
  (-0.157072 -0.053645 0)
  (-0.122927 -0.0591899 0)
  (-0.088212 -0.0585308 0)
  (-0.056061 -0.0522269 0)
  (-0.0297145 -0.0418449 0)
  (-0.0133631 -0.0296289 0)
  (0.000138172 -0.0118316 0)
  (-0.00149061 0.0169905 0)
  (0.0705854 0.0377091 0)
  (0.0302015 -0.0208753 0)
  (0.0386363 -0.0346699 0)
  (0.0509249 -0.0302415 0)
  (0.06066 -0.0213587 0)
  (0.0674664 -0.012974 0)
  (0.0703458 -0.00545487 0)
  (0.070839 -0.00124451 0)
  (0.0707464 0.000504626 0)
  (0.0708369 0.00127421 0)
  (0.0710322 0.00173725 0)
  (0.0711728 0.00212254 0)
  (0.0712101 0.00261913 0)
  (0.0710864 0.00358761 0)
  (0.0702375 0.00599116 0)
  (0.0660749 0.012649 0)
  (0.0556211 0.018249 0)
  (0.0506214 0.0221485 0)
  (-0.0544114 0.0498919 0)
  (0.369708 0.269962 0)
  (-0.173645 0.111259 0)
  (-0.118221 0.0856091 0)
  (-0.148161 0.062844 0)
  (-0.166557 0.0390456 0)
  (-0.176425 0.0131013 0)
  (-0.175086 -0.0152912 0)
  (-0.162135 -0.0439288 0)
  (-0.140372 -0.0682678 0)
  (-0.113025 -0.0846441 0)
  (-0.083592 -0.0914781 0)
  (-0.0547639 -0.0891825 0)
  (-0.0284917 -0.078826 0)
  (-0.00667338 -0.062368 0)
  (0.00943576 -0.0407826 0)
  (0.0203414 -0.0151692 0)
  (0.0252919 0.0222291 0)
  (0.120909 -0.0349015 0)
  (0.0802361 -0.0441518 0)
  (0.0744575 -0.0430463 0)
  (0.0764421 -0.0359707 0)
  (0.0780589 -0.0265453 0)
  (0.0792902 -0.0183101 0)
  (0.0777517 -0.0145074 0)
  (0.0729107 -0.0101013 0)
  (0.0694708 -0.00769796 0)
  (0.067932 -0.00631685 0)
  (0.0672767 -0.00542764 0)
  (0.066947 -0.0048035 0)
  (0.0669535 -0.00423112 0)
  (0.0678022 -0.00331138 0)
  (0.0707756 4.70184e-05 0)
  (0.0684363 0.0182064 0)
  (0.0538109 0.0308808 0)
  (0.056918 0.0393762 0)
  (-0.0912667 0.0771733 0)
  (0.514519 0.341443 0)
  (-0.206265 0.147323 0)
  (-0.0768489 0.112809 0)
  (-0.104155 0.0816006 0)
  (-0.116826 0.0506906 0)
  (-0.122339 0.0161549 0)
  (-0.116007 -0.0229957 0)
  (-0.100035 -0.0619373 0)
  (-0.0786897 -0.0930807 0)
  (-0.055324 -0.112438 0)
  (-0.0326514 -0.119173 0)
  (-0.0118789 -0.114911 0)
  (0.00689299 -0.100791 0)
  (0.0223353 -0.0803236 0)
  (0.0359521 -0.0555004 0)
  (0.0509926 -0.0278273 0)
  (0.0735288 0.00309848 0)
  (0.10637 0.0157704 0)
  (0.11183 -0.027593 0)
  (0.0961865 -0.0384673 0)
  (0.0865408 -0.0367258 0)
  (0.0815456 -0.0314576 0)
  (0.0780438 -0.0241601 0)
  (0.076051 -0.015126 0)
  (0.0778785 -0.00896334 0)
  (0.083045 -0.00674364 0)
  (0.0872519 -0.00545906 0)
  (0.0898894 -0.00447911 0)
  (0.0912674 -0.00334201 0)
  (0.0907627 -0.00176026 0)
  (0.0873842 0.00046739 0)
  (0.0798758 0.00365411 0)
  (0.0652088 0.00841554 0)
  (0.0528394 0.0298255 0)
  (0.0402159 0.0473603 0)
  (0.0603583 0.0607165 0)
  (-0.133931 0.100483 0)
  (0.638856 0.396631 0)
  (-0.246653 0.176574 0)
  (-0.036908 0.127906 0)
  (-0.0581683 0.0917409 0)
  (-0.062278 0.0564868 0)
  (-0.0591385 0.0149081 0)
  (-0.0408679 -0.0348452 0)
  (-0.0211181 -0.0809286 0)
  (-0.00221801 -0.114577 0)
  (0.0140275 -0.133032 0)
  (0.0265551 -0.136937 0)
  (0.0363031 -0.129752 0)
  (0.0438406 -0.113867 0)
  (0.0501208 -0.0921034 0)
  (0.0563631 -0.067229 0)
  (0.064474 -0.0425174 0)
  (0.0771672 -0.0241491 0)
  (0.0880867 -0.0240953 0)
  (0.0889736 -0.0332707 0)
  (0.0817514 -0.0341251 0)
  (0.0728427 -0.0305483 0)
  (0.0657856 -0.0257842 0)
  (0.0606507 -0.0202279 0)
  (0.0577641 -0.0139324 0)
  (0.057796 -0.00773597 0)
  (0.0603478 -0.00471308 0)
  (0.0631581 -0.00347778 0)
  (0.0657347 -0.00238841 0)
  (0.0679476 -0.000382292 0)
  (0.0693297 0.00300558 0)
  (0.0686973 0.00783238 0)
  (0.0655265 0.0142738 0)
  (0.0591067 0.0230778 0)
  (0.0514864 0.0394857 0)
  (0.0400312 0.0591131 0)
  (0.0680287 0.0805797 0)
  (-0.0344589 0.112888 0)
  (0.0475981 0.0275189 0)
  (-0.0688676 -0.0377365 0)
  (-0.285889 -0.0612886 0)
  (0.728552 0.442321 0)
  (-0.285925 0.195703 0)
  (-0.00677483 0.122166 0)
  (-0.00944079 0.0896059 0)
  (-0.000213787 0.052375 0)
  (0.0229443 0.00103997 0)
  (0.0519942 -0.0550457 0)
  (0.0714938 -0.0987749 0)
  (0.0833512 -0.127439 0)
  (0.0884121 -0.1413 0)
  (0.0882175 -0.142012 0)
  (0.0845169 -0.132263 0)
  (0.0788915 -0.114918 0)
  (0.0729887 -0.0929714 0)
  (0.0682307 -0.0692159 0)
  (0.0658636 -0.0468031 0)
  (0.0665585 -0.0299008 0)
  (0.0669774 -0.0235519 0)
  (0.0631431 -0.0239846 0)
  (0.0553361 -0.0241915 0)
  (0.0466459 -0.0222933 0)
  (0.0394887 -0.01933 0)
  (0.03442 -0.0158406 0)
  (0.0317387 -0.0120095 0)
  (0.0315953 -0.00863983 0)
  (0.0335241 -0.00727279 0)
  (0.0363934 -0.00690141 0)
  (0.0397323 -0.00615855 0)
  (0.0433059 -0.00397098 0)
  (0.0469643 0.000497435 0)
  (0.0497138 0.00724006 0)
  (0.0509121 0.0159306 0)
  (0.0508654 0.0269295 0)
  (0.051098 0.0421685 0)
  (0.0488458 0.0612631 0)
  (0.0761623 0.0860437 0)
  (0.0487483 0.105393 0)
  (0.0974618 0.0698986 0)
  (0.122149 0.0453914 0)
  (-0.138187 -0.00987739 0)
  (0.786003 0.484072 0)
  (-0.30383 0.179907 0)
  (0.0246775 0.0655175 0)
  (0.0587454 0.0541257 0)
  (0.0865408 0.02561 0)
  (0.131265 -0.0297734 0)
  (0.159414 -0.0778489 0)
  (0.172444 -0.111406 0)
  (0.172538 -0.130613 0)
  (0.162547 -0.136987 0)
  (0.145762 -0.132539 0)
  (0.125328 -0.119822 0)
  (0.103968 -0.101666 0)
  (0.0839422 -0.0807383 0)
  (0.0667816 -0.0592204 0)
  (0.0534462 -0.0396929 0)
  (0.0440854 -0.0251453 0)
  (0.0369323 -0.0178997 0)
  (0.0296115 -0.0161035 0)
  (0.0215914 -0.0158225 0)
  (0.0140168 -0.0149864 0)
  (0.0079885 -0.013684 0)
  (0.0038751 -0.0122038 0)
  (0.00185929 -0.0107055 0)
  (0.00194502 -0.00969535 0)
  (0.00365813 -0.00975816 0)
  (0.00628141 -0.0102212 0)
  (0.0095281 -0.010113 0)
  (0.0134196 -0.00849238 0)
  (0.0180844 -0.00428905 0)
  (0.0247635 0.0033809 0)
  (0.0304011 0.0128835 0)
  (0.0359862 0.0239248 0)
  (0.0433706 0.0374015 0)
  (0.0508026 0.0529659 0)
  (0.0759586 0.0731185 0)
  (0.0883563 0.0805645 0)
  (0.125183 0.052361 0)
  (0.167754 0.0428945 0)
  (-0.0320762 0.0967024 0)
  (0.894168 0.483148 0)
  (-0.0550134 0.158061 0)
  (0.120502 -0.0241506 0)
  (0.211063 -0.0616364 0)
  (0.257996 -0.0762176 0)
  (0.282004 -0.0930053 0)
  (0.289393 -0.108063 0)
  (0.28002 -0.117183 0)
  (0.256276 -0.119339 0)
  (0.222551 -0.114838 0)
  (0.18363 -0.104605 0)
  (0.14364 -0.0900015 0)
  (0.105857 -0.0729374 0)
  (0.0725707 -0.0551891 0)
  (0.0448613 -0.0378999 0)
  (0.0236414 -0.0230669 0)
  (0.00879966 -0.0130055 0)
  (-0.00132202 -0.00848967 0)
  (-0.00888947 -0.00787269 0)
  (-0.0154189 -0.00843084 0)
  (-0.0209791 -0.00889007 0)
  (-0.0253095 -0.00917214 0)
  (-0.028326 -0.00941494 0)
  (-0.0300051 -0.00975839 0)
  (-0.0304596 -0.010425 0)
  (-0.0300705 -0.011513 0)
  (-0.0292538 -0.0126697 0)
  (-0.0281282 -0.0133983 0)
  (-0.0265178 -0.0131814 0)
  (-0.0239786 -0.0114041 0)
  (-0.0193625 -0.00726857 0)
  (-0.00900302 -0.000128937 0)
  (-0.000728602 0.00845096 0)
  (0.0105153 0.0170136 0)
  (0.0221029 0.0246916 0)
  (0.0433768 0.0334652 0)
  (0.0620115 0.0257479 0)
  (0.0810119 -0.00559142 0)
  (0.142582 0.0448677 0)
  (-0.454878 0.221884 0)
  (1.0467 0.42711 0)
  (0.495858 0.278779 0)
  (0.515237 0.1724 0)
  (0.550252 0.0928092 0)
  (0.529235 0.0377564 0)
  (0.480399 -0.0051979 0)
  (0.424029 -0.0359668 0)
  (0.36261 -0.0541304 0)
  (0.297093 -0.0612788 0)
  (0.230968 -0.0600979 0)
  (0.168345 -0.0533034 0)
  (0.112157 -0.0429766 0)
  (0.0645689 -0.0313422 0)
  (0.0259917 -0.020043 0)
  (-0.00463192 -0.00988254 0)
  (-0.0242824 -0.00365101 0)
  (-0.0354625 -0.00115362 0)
  (-0.0422007 -0.000948769 0)
  (-0.0470379 -0.00197808 0)
  (-0.0513414 -0.00335989 0)
  (-0.0552027 -0.00470243 0)
  (-0.0585684 -0.00597816 0)
  (-0.0614333 -0.00722595 0)
  (-0.0638745 -0.0084839 0)
  (-0.0660893 -0.00978322 0)
  (-0.0684149 -0.0110509 0)
  (-0.07121 -0.0120083 0)
  (-0.0747783 -0.0122448 0)
  (-0.0794512 -0.0112389 0)
  (-0.0857314 -0.00831541 0)
  (-0.0943363 -0.00266456 0)
  (-0.104846 0.0062393 0)
  (-0.115877 0.0180552 0)
  (-0.133218 0.0331229 0)
  (-0.160561 0.0512271 0)
  (-0.200316 0.0702834 0)
  (-0.25643 0.0849603 0)
  (-0.31968 0.0922705 0)
  (-0.391216 0.0929561 0)
  (-0.659775 0.087562 0)
  (-0.176331 -0.0216898 0)
  (0.0991303 -0.0387466 0)
  (0.176175 -0.0572082 0)
  (0.162509 -0.048899 0)
  (0.142309 -0.0351323 0)
  (0.117334 -0.0226738 0)
  (0.0845399 -0.0120728 0)
  (0.0481718 -0.00389261 0)
  (0.0128627 0.00169554 0)
  (-0.0194666 0.00517272 0)
  (-0.0423227 0.00628933 0)
  (-0.0587554 0.00620579 0)
  (-0.0688629 0.00498751 0)
  (-0.0740356 0.00272398 0)
  (-0.0769728 0.000212371 0)
  (-0.0790417 -0.00234452 0)
  (-0.0810546 -0.00492639 0)
  (-0.083355 -0.00732513 0)
  (-0.0861065 -0.00930538 0)
  (-0.0891199 -0.010798 0)
  (-0.0922625 -0.0118947 0)
  (-0.0956235 -0.0126322 0)
  (-0.0993629 -0.0130316 0)
  (-0.10365 -0.013019 0)
  (-0.108578 -0.0123601 0)
  (-0.114097 -0.0106681 0)
  (-0.119961 -0.00744644 0)
  (-0.125714 -0.00214715 0)
  (-0.130633 0.00555654 0)
  (-0.134392 0.0160778 0)
  (-0.137406 0.0304282 0)
  (-0.140241 0.0490839 0)
  (-0.144009 0.0709954 0)
  (-0.149331 0.0915372 0)
  (-0.15269 0.0992685 0)
  (-0.134894 0.0722033 0)
  (-0.081863 -0.0314112 0)
  (-0.289004 -0.225226 0)
  (0.0387373 0.197029 0)
  (0.0117371 0.062429 0)
  (-0.0334118 0.0110597 0)
  (-0.0580342 0.0105433 0)
  (-0.0770661 0.0169392 0)
  (-0.0909437 0.0218279 0)
  (-0.0999767 0.0257567 0)
  (-0.106608 0.0288836 0)
  (-0.111247 0.0306326 0)
  (-0.114144 0.0308312 0)
  (-0.115168 0.0301518 0)
  (-0.114871 0.0297473 0)
  (-0.113524 0.0297365 0)
  (-0.111784 0.0302124 0)
  (-0.110221 0.0314219 0)
  (-0.109051 0.0331936 0)
  (-0.108399 0.0350727 0)
  (-0.108293 0.0365182 0)
  (-0.108674 0.0369846 0)
  (-0.109518 0.0361807 0)
  (-0.110803 0.0347952 0)
  (-0.112504 0.0330773 0)
  (-0.114589 0.0311444 0)
  (-0.117008 0.0290967 0)
  (-0.119657 0.0270454 0)
  (-0.122356 0.025106 0)
  (-0.12481 0.0233667 0)
  (-0.126466 0.0221328 0)
  (-0.126434 0.0227831 0)
  (-0.123408 0.0265735 0)
  (-0.11577 0.0346787 0)
  (-0.102351 0.0482178 0)
  (-0.0834939 0.0669885 0)
  (-0.0604603 0.0860252 0)
  (-0.0362996 0.0969277 0)
  (0.00707904 0.0794717 0)
  (0.144554 0.00334717 0)
  (-0.207813 -0.13795 0)
  (-0.0928992 -0.346958 0)
  (-0.44717 -0.138614 0)
  (-0.334181 0.0440473 0)
  (-0.293674 -0.0436694 0)
  (-0.253128 -0.0499329 0)
  (-0.242182 -0.0426117 0)
  (-0.234276 -0.0357014 0)
  (-0.2249 -0.0313913 0)
  (-0.213082 -0.0293036 0)
  (-0.199202 -0.0295755 0)
  (-0.18434 -0.0327347 0)
  (-0.169963 -0.0386826 0)
  (-0.157279 -0.0465095 0)
  (-0.146848 -0.0549773 0)
  (-0.138719 -0.0636323 0)
  (-0.132699 -0.072265 0)
  (-0.128365 -0.0805297 0)
  (-0.125256 -0.0880574 0)
  (-0.123039 -0.094409 0)
  (-0.121528 -0.0991048 0)
  (-0.12068 -0.101783 0)
  (-0.120521 -0.102266 0)
  (-0.121032 -0.10123 0)
  (-0.122056 -0.098974 0)
  (-0.123425 -0.0956718 0)
  (-0.12495 -0.0914143 0)
  (-0.126376 -0.086192 0)
  (-0.127354 -0.0798757 0)
  (-0.127434 -0.0721891 0)
  (-0.126011 -0.0629959 0)
  (-0.121941 -0.0528141 0)
  (-0.113067 -0.0414656 0)
  (-0.0964459 -0.0284173 0)
  (-0.0699619 -0.0126852 0)
  (-0.0350433 0.00646608 0)
  (0.024112 0.0311291 0)
  (0.0745269 0.0319198 0)
  (0.123025 0.0102798 0)
  (0.176564 -0.0304203 0)
  (-0.178647 -0.0984907 0)
)
;

boundaryField
{
  floor
  {
    type noSlip;
  }
  ceiling
  {
    type noSlip;
  }
  sWall
  {
    type noSlip;
  }
  nWall
  {
    type noSlip;
  }
  sideWalls
  {
    type empty;
  }
  glass1
  {
    type noSlip;
  }
  glass2
  {
    type noSlip;
  }
  sun
  {
    type noSlip;
  }
  heatsource1
  {
    type noSlip;
  }
  heatsource2
  {
    type noSlip;
  }
  Table_master
  {
    type noSlip;
  }
  Table_slave
  {
    type noSlip;
  }
  inlet
  {
    type fixedValue;
    value uniform (0.277164 -0.114805 0);
  }
  outlet
  {
    type zeroGradient;
  }
} 	// ************************************************************************* //

