/*--------------------------------*- C++ -*----------------------------------*\
  =========                 |
  \\      /  F ield         | OpenFOAM: The Open Source CFD Toolbox
   \\    /   O peration     | Website:  https://openfoam.org
    \\  /    A nd           | Version:  6
     \\/     M anipulation  |
\*---------------------------------------------------------------------------*/
FoamFile
{
    version     2.0;
    format      ascii;
    class       volScalarField;
    location    "800";
    object      epsilon;
}
// * * * * * * * * * * * * * * * * * * * * * * * * * * * * * * * * * * * * * //

dimensions      [0 2 -3 0 0 0 0];

internalField   nonuniform List<scalar> 
459
(
0.000291992
0.000362512
0.000371021
0.000421623
0.000471395
0.000520171
0.000569441
0.000621785
0.000670413
0.000702197
0.000706159
0.000674006
0.000606266
0.000516588
0.000427332
2.69935e-05
4.51118e-05
5.72247e-05
5.23508e-05
4.58489e-05
3.94726e-05
3.33029e-05
2.80368e-05
2.37783e-05
2.03626e-05
1.76075e-05
1.53732e-05
1.3541e-05
1.20066e-05
1.06827e-05
9.48316e-06
8.31943e-06
7.97451e-06
6.58185e-06
0.000826309
0.00139402
0.000339591
0.0003191
0.000328349
0.000345411
0.000371773
0.000411429
0.000460488
0.000505173
0.000528913
0.000518495
0.000471156
0.000400055
0.000349351
0.00043562
7.50909e-05
3.42326e-05
7.35337e-05
7.16024e-05
6.20452e-05
5.09648e-05
4.14856e-05
3.58338e-05
2.92896e-05
2.37432e-05
1.93261e-05
1.58535e-05
1.31368e-05
1.1017e-05
9.36903e-06
8.18918e-06
7.59026e-06
7.5989e-06
2.9906e-05
1.78663e-05
0.00162123
0.00385125
0.000453843
0.000304429
0.000309338
0.00033639
0.000378442
0.000437934
0.000510771
0.00057595
0.000609597
0.000599736
0.000549032
0.000472985
0.000398543
0.000354973
0.000312783
0.000244088
0.000162069
0.000113088
8.19216e-05
6.17505e-05
4.9926e-05
8.3505e-05
6.1983e-05
4.72101e-05
3.69053e-05
2.95573e-05
2.4196e-05
2.02039e-05
1.71918e-05
1.49167e-05
1.16971e-05
1.03524e-05
6.22554e-05
3.051e-05
0.00280617
0.00848332
0.000803897
0.000307885
0.000296053
0.00033246
0.000391189
0.000478838
0.000590646
0.000679404
0.000714918
0.000693519
0.000626498
0.000534168
0.000436306
0.000363497
0.000349004
0.000577278
0.000332279
0.000186586
0.000117615
8.15505e-05
6.11141e-05
5.18831e-05
0.000114527
9.48642e-05
8.37554e-05
7.6483e-05
7.01521e-05
6.31075e-05
5.6496e-05
4.9632e-05
4.18692e-05
2.60424e-05
1.83352e-05
0.000119786
4.29784e-05
0.0045301
0.0155784
0.00177069
0.000367449
0.000286355
0.000320401
0.000398665
0.000548264
0.000737023
0.000849436
0.000874371
0.000827765
0.000729647
0.000604035
0.000470505
0.000346729
0.000252056
0.000207115
0.000154524
0.000112788
8.39152e-05
6.54068e-05
5.40771e-05
4.83616e-05
5.00607e-05
5.12541e-05
5.21689e-05
5.21018e-05
5.03146e-05
4.64809e-05
4.20192e-05
3.77918e-05
3.40336e-05
2.83722e-05
2.32032e-05
7.90973e-05
5.322e-05
9.43784e-05
0.000158001
0.000218373
0.00700912
0.0233278
0.00439758
0.00077519
0.000405302
0.000374122
0.000443032
0.000749197
0.00102305
0.00112155
0.00110525
0.00101238
0.000873011
0.000707907
0.000531482
0.000363975
0.000233511
0.000155179
0.000113351
8.75358e-05
6.97292e-05
5.8808e-05
5.34607e-05
5.25715e-05
5.57132e-05
6.07198e-05
6.54382e-05
6.84795e-05
6.85824e-05
6.44587e-05
5.57615e-05
4.66212e-05
3.85937e-05
3.202e-05
2.91155e-05
5.20241e-05
5.47728e-05
6.8504e-05
0.000297537
0.00024852
0.0101444
0.0278825
0.00996958
0.00319292
0.00166618
0.0011446
0.00108331
0.00143293
0.00156846
0.00155037
0.00143472
0.00125954
0.00105357
0.000832432
0.00060503
0.000392213
0.000230241
0.000135816
9.35376e-05
7.38664e-05
6.3088e-05
5.83913e-05
5.85232e-05
6.22507e-05
6.91217e-05
7.79107e-05
8.68741e-05
9.50758e-05
0.000101176
0.000102801
9.547e-05
8.10021e-05
6.75608e-05
5.70587e-05
5.39857e-05
6.56949e-05
8.51431e-05
0.000141493
0.000377387
0.000337282
0.0109539
0.0316911
0.0171724
0.0112833
0.0073561
0.00490268
0.00375438
0.00304088
0.00256356
0.00219898
0.00186729
0.00154833
0.00124561
0.000953854
0.000665557
0.000400538
0.000210782
0.000111335
7.97778e-05
6.85828e-05
6.43546e-05
6.45615e-05
6.82228e-05
7.4784e-05
8.40136e-05
9.55861e-05
0.000109228
0.000125048
0.000143169
0.000163242
0.000183589
0.000193574
0.000197859
0.000215906
0.000256697
0.000391232
0.000731194
0.00151486
0.00541519
0.0012709
0.0102337
0.017607
0.0147045
0.0111757
0.00846992
0.00646165
0.00506153
0.0040787
0.00337396
0.00279005
0.00225163
0.00177948
0.00138175
0.00102062
0.00066295
0.000341533
0.00016208
0.000101209
8.20939e-05
7.57215e-05
7.42685e-05
7.58409e-05
7.98954e-05
8.63561e-05
9.53816e-05
0.000107288
0.000122707
0.000142796
0.000169368
0.000205039
0.000253443
0.000319233
0.00040925
0.000546013
0.000751562
0.00103511
0.00136568
0.00166263
0.00188083
0.00103076
0.00559887
0.00895333
0.00763198
0.00648085
0.00558673
0.00478254
0.00390264
0.00302124
0.00223394
0.00167816
0.00128316
0.000903912
0.000502937
0.000273978
0.000169903
0.000130516
0.000115817
0.000109371
0.000106161
0.000104913
0.000105434
0.000107884
0.000112574
0.000119922
0.000130557
0.000145518
0.000166514
0.000196303
0.000239288
0.000301709
0.000390986
0.000517703
0.000691147
0.00090679
0.001139
0.00136005
0.00121738
0.000603323
0.00425652
0.00804819
0.00706173
0.0055628
0.00457621
0.00376096
0.00284519
0.00195493
0.00121095
0.000735466
0.000515667
0.000378632
0.000292696
0.000247919
0.000220961
0.000199965
0.000183985
0.000171497
0.000161174
0.000152474
0.000145534
0.000140862
0.000139123
0.000141069
0.000147551
0.000159615
0.000178675
0.000206795
0.000247088
0.000304031
0.000383525
0.00049209
0.000633001
0.000800754
0.000983657
0.0012679
0.000668527
0.000666736
0.00275073
0.00325722
0.00367762
0.00430344
0.00360568
0.00291382
0.00213304
0.0013024
0.000762263
0.000503991
0.00036936
0.000317021
0.000288191
0.000240537
0.000196381
0.000162018
0.000139913
0.00012855
0.000121792
0.000117943
0.000116167
0.000116246
0.000118257
0.000122386
0.000128871
0.000137999
0.000150165
0.00016597
0.000186413
0.000213267
0.000248038
0.000292194
0.000348175
0.000419006
0.00050793
0.000624945
0.000668152
0.000511442
0.000417646
0.000604567
)
;

boundaryField
{
    floor
    {
        Cmu             0.09;
        kappa           0.41;
        E               9.8;
        type            epsilonWallFunction;
        value           nonuniform List<scalar> 
29
(
0.000427332
2.69935e-05
4.51118e-05
5.72247e-05
5.23508e-05
4.58489e-05
3.94726e-05
3.33029e-05
2.80368e-05
2.37783e-05
2.03626e-05
1.76075e-05
1.53732e-05
1.3541e-05
1.20066e-05
1.06827e-05
9.48316e-06
8.31943e-06
7.97451e-06
6.58185e-06
6.58185e-06
1.78663e-05
3.051e-05
4.29784e-05
0.000427332
2.69935e-05
3.42326e-05
0.000244088
0.000577278
)
;
    }
    ceiling
    {
        Cmu             0.09;
        kappa           0.41;
        E               9.8;
        type            epsilonWallFunction;
        value           nonuniform List<scalar> 
43
(
0.00275073
0.00325722
0.00367762
0.00430344
0.00360568
0.00291382
0.00213304
0.0013024
0.000762263
0.000503991
0.00036936
0.000317021
0.000288191
0.000240537
0.000196381
0.000162018
0.000139913
0.00012855
0.000121792
0.000117943
0.000116167
0.000116246
0.000118257
0.000122386
0.000128871
0.000137999
0.000150165
0.00016597
0.000186413
0.000213267
0.000248038
0.000292194
0.000348175
0.000419006
0.00050793
0.000624945
0.000668152
0.000511442
0.000417646
0.000604567
0.0102337
0.017607
0.00425652
)
;
    }
    sWall
    {
        Cmu             0.09;
        kappa           0.41;
        E               9.8;
        type            epsilonWallFunction;
        value           uniform 0.00275073;
    }
    nWall
    {
        Cmu             0.09;
        kappa           0.41;
        E               9.8;
        type            epsilonWallFunction;
        value           nonuniform List<scalar> 6(0.000218373 0.00024852 0.000337282 0.000603323 0.000666736 0.000604567);
    }
    sideWalls
    {
        type            empty;
    }
    glass1
    {
        Cmu             0.09;
        kappa           0.41;
        E               9.8;
        type            epsilonWallFunction;
        value           nonuniform List<scalar> 9(0.000291992 0.000826309 0.00162123 0.00280617 0.0045301 0.00700912 0.0101444 0.0109539 0.0102337);
    }
    glass2
    {
        Cmu             0.09;
        kappa           0.41;
        E               9.8;
        type            epsilonWallFunction;
        value           nonuniform List<scalar> 2(0.0012709 0.00103076);
    }
    sun
    {
        Cmu             0.09;
        kappa           0.41;
        E               9.8;
        type            epsilonWallFunction;
        value           nonuniform List<scalar> 
14
(
0.000291992
0.000362512
0.000371021
0.000421623
0.000471395
0.000520171
0.000569441
0.000621785
0.000670413
0.000702197
0.000706159
0.000674006
0.000606266
0.000516588
)
;
    }
    heatsource1
    {
        Cmu             0.09;
        kappa           0.41;
        E               9.8;
        type            epsilonWallFunction;
        value           nonuniform List<scalar> 3(9.43784e-05 0.000158001 0.000218373);
    }
    heatsource2
    {
        Cmu             0.09;
        kappa           0.41;
        E               9.8;
        type            epsilonWallFunction;
        value           nonuniform List<scalar> 4(0.00043562 7.50909e-05 7.50909e-05 0.000312783);
    }
    Table_master
    {
        Cmu             0.09;
        kappa           0.41;
        E               9.8;
        type            epsilonWallFunction;
        value           nonuniform List<scalar> 9(8.3505e-05 6.1983e-05 4.72101e-05 3.69053e-05 2.95573e-05 2.4196e-05 2.02039e-05 1.71918e-05 1.49167e-05);
    }
    Table_slave
    {
        Cmu             0.09;
        kappa           0.41;
        E               9.8;
        type            epsilonWallFunction;
        value           nonuniform List<scalar> 9(0.000114527 9.48642e-05 8.37554e-05 7.6483e-05 7.01521e-05 6.31075e-05 5.6496e-05 4.9632e-05 4.18692e-05);
    }
    inlet
    {
        type            turbulentMixingLengthDissipationRateInlet;
        mixingLength    0.01;
        phi             phi;
        k               k;
        value           uniform 0.000101881;
    }
    outlet
    {
        type            zeroGradient;
    }
}


// ************************************************************************* //
