/*--------------------------------*- C++ -*----------------------------------*\
  =========                 |
  \\      /  F ield         | OpenFOAM: The Open Source CFD Toolbox
   \\    /   O peration     | Website:  https://openfoam.org
    \\  /    A nd           | Version:  6
     \\/     M anipulation  |
\*---------------------------------------------------------------------------*/
FoamFile
{
    version     2.0;
    format      ascii;
    class       volScalarField;
    location    "2000";
    object      epsilon;
}
// * * * * * * * * * * * * * * * * * * * * * * * * * * * * * * * * * * * * * //

dimensions      [0 2 -3 0 0 0 0];

internalField   nonuniform List<scalar> 
459
(
0.000522066
0.00068615
0.000727104
0.0008404
0.000956778
0.00107667
0.00120594
0.00133289
0.00142257
0.00145342
0.00140943
0.00128746
0.00109942
0.000876749
0.000663563
4.82671e-05
8.51502e-05
0.000121256
0.000120459
0.0001089
9.45038e-05
7.79879e-05
6.35822e-05
5.21535e-05
4.32393e-05
3.62526e-05
3.07179e-05
2.6298e-05
2.27119e-05
1.97121e-05
1.70861e-05
1.4633e-05
1.32242e-05
1.01746e-05
0.00131564
0.00185879
0.00064972
0.000632172
0.000668087
0.000725339
0.000807518
0.000907741
0.000995921
0.00104439
0.0010341
0.000961692
0.000836874
0.00068717
0.000573438
0.000720204
0.00014151
5.78837e-05
0.00013727
0.000146412
0.000133726
0.000114097
9.56504e-05
8.62817e-05
6.98219e-05
5.52967e-05
4.38077e-05
3.49583e-05
2.81697e-05
2.29636e-05
1.89761e-05
1.60372e-05
1.42483e-05
1.35053e-05
3.4998e-05
2.37172e-05
0.00238149
0.00448488
0.000815015
0.000612729
0.000650296
0.000741689
0.000872324
0.00102378
0.00115007
0.0012169
0.00120968
0.00113307
0.000999231
0.000841062
0.000697298
0.000630534
0.000776843
0.000419638
0.000307008
0.00023423
0.000182146
0.000143997
0.000121461
0.000223277
0.000153371
0.000109118
8.03605e-05
6.10799e-05
4.77538e-05
3.83046e-05
3.15007e-05
2.66342e-05
2.0207e-05
1.70283e-05
6.66541e-05
3.77305e-05
0.0038227
0.00920202
0.00130518
0.000642568
0.000660929
0.000797649
0.00100938
0.00123409
0.00138989
0.001454
0.00142879
0.00132893
0.00116306
0.000973806
0.000804079
0.000690458
0.000671999
0.00127545
0.000724547
0.000437492
0.000293683
0.000211858
0.000161319
0.000138037
0.000317449
0.000239582
0.00019247
0.000160772
0.000136414
0.000116462
9.91711e-05
8.29793e-05
6.65786e-05
3.91183e-05
2.61119e-05
0.000114193
5.10972e-05
0.00578397
0.0162324
0.00259043
0.000819585
0.000738902
0.000941257
0.00132408
0.00161827
0.00176068
0.00178378
0.00171488
0.00156793
0.00135664
0.0011122
0.000873965
0.000676253
0.000539955
0.000484884
0.000395226
0.000311564
0.000244005
0.000192004
0.000153228
0.000127708
0.00012321
0.000114432
0.00010564
9.68547e-05
8.75852e-05
7.80071e-05
6.86848e-05
5.99636e-05
5.19484e-05
4.10791e-05
3.16978e-05
8.04271e-05
5.74078e-05
9.2651e-05
0.000158036
0.000221765
0.00848252
0.0239239
0.00578601
0.00169247
0.00126527
0.00161764
0.00212721
0.00231855
0.00233506
0.0022601
0.00211796
0.0019022
0.00161603
0.0012885
0.000967063
0.000698363
0.000509301
0.000398507
0.000327225
0.000268834
0.000217323
0.000174944
0.000142925
0.000121797
0.000111802
0.000107502
0.000104681
0.000101001
9.51406e-05
8.61159e-05
7.46878e-05
6.32978e-05
5.30692e-05
4.39844e-05
3.86432e-05
5.75193e-05
5.9103e-05
7.13778e-05
0.00029507
0.000255584
0.0114881
0.0284481
0.0116717
0.00537445
0.00401325
0.0040036
0.00379049
0.00349707
0.00321118
0.00295013
0.00267839
0.00234832
0.00194549
0.00150129
0.0010756
0.000730912
0.000498172
0.000364407
0.000287809
0.000233131
0.000188365
0.000153789
0.000130167
0.000117155
0.000113355
0.000115038
0.000118404
0.00012145
0.000122711
0.000120109
0.00010924
9.58899e-05
8.29467e-05
7.19435e-05
6.8151e-05
7.97419e-05
0.000104125
0.000176283
0.000415261
0.000389321
0.0120682
0.0297874
0.0171739
0.0122852
0.00965698
0.00752799
0.00600101
0.00498728
0.00432852
0.00385719
0.00342046
0.00291403
0.0023235
0.00170375
0.00113615
0.000707407
0.000444214
0.000304562
0.000232737
0.000187041
0.000153867
0.000131641
0.000119443
0.000115841
0.00011901
0.000126782
0.000137566
0.000150935
0.000166947
0.000185339
0.000204501
0.000212571
0.000222964
0.000246347
0.00029577
0.000458987
0.000893089
0.00181081
0.00536094
0.00143702
0.0110732
0.0181437
0.0145784
0.0111684
0.00877877
0.00728188
0.00638654
0.00585153
0.00546017
0.00501666
0.00438583
0.00353587
0.00259529
0.00170979
0.000972099
0.000523036
0.000322296
0.000227184
0.000176209
0.000144484
0.000124295
0.000113243
0.0001097
0.000112162
0.000119397
0.000130672
0.000146033
0.000166421
0.000193582
0.000230091
0.000279467
0.000347018
0.000440776
0.000585462
0.000798195
0.00108493
0.00140692
0.00167496
0.00186893
0.00112129
0.00372446
0.00657143
0.00842528
0.00891136
0.00889881
0.00843016
0.00744048
0.00604225
0.00444525
0.00279822
0.0016836
0.000975583
0.000554014
0.000334512
0.000228997
0.00017538
0.000144882
0.000125702
0.000113782
0.000107655
0.000106273
0.000108692
0.000114356
0.000123162
0.000135506
0.000152372
0.000175497
0.000207713
0.000253478
0.000318752
0.000410626
0.00053822
0.000703841
0.000887278
0.00103191
0.00106544
0.000934786
0.000586966
0.0037125
0.00848466
0.00848021
0.00703004
0.00608519
0.00510042
0.00402162
0.00295897
0.00201403
0.00125781
0.000764712
0.000474126
0.000315023
0.000232954
0.000190469
0.000166196
0.000150191
0.000138505
0.000129731
0.000123581
0.000120332
0.000119996
0.000122726
0.000128946
0.000139378
0.000155097
0.000177678
0.000209432
0.000253675
0.000315008
0.000399603
0.000513573
0.00065723
0.000820763
0.000942514
0.00104978
0.000803335
0.000608938
0.00266992
0.00318632
0.00359728
0.0045155
0.00400522
0.00356461
0.00322617
0.00277359
0.00223203
0.00168087
0.00118298
0.000789356
0.000521131
0.000356233
0.000258346
0.000199218
0.000162147
0.00013832
0.000123259
0.000114592
0.000110904
0.000111173
0.000114249
0.000119866
0.000128016
0.000138906
0.000152959
0.000170885
0.000193869
0.000223616
0.00026109
0.0003084
0.000368167
0.000443833
0.000539086
0.000685218
0.00073179
0.000679277
0.000551512
0.000433261
)
;

boundaryField
{
    floor
    {
        Cmu             0.09;
        kappa           0.41;
        E               9.8;
        type            epsilonWallFunction;
        value           nonuniform List<scalar> 
29
(
0.000663563
4.82671e-05
8.51502e-05
0.000121256
0.000120459
0.0001089
9.45038e-05
7.79879e-05
6.35822e-05
5.21535e-05
4.32393e-05
3.62526e-05
3.07179e-05
2.6298e-05
2.27119e-05
1.97121e-05
1.70861e-05
1.4633e-05
1.32242e-05
1.01746e-05
1.01746e-05
2.37172e-05
3.77305e-05
5.10972e-05
0.000663563
4.82671e-05
5.78837e-05
0.000419638
0.00127545
)
;
    }
    ceiling
    {
        Cmu             0.09;
        kappa           0.41;
        E               9.8;
        type            epsilonWallFunction;
        value           nonuniform List<scalar> 
43
(
0.00266992
0.00318632
0.00359728
0.0045155
0.00400522
0.00356461
0.00322617
0.00277359
0.00223203
0.00168087
0.00118298
0.000789356
0.000521131
0.000356233
0.000258346
0.000199218
0.000162147
0.00013832
0.000123259
0.000114592
0.000110904
0.000111173
0.000114249
0.000119866
0.000128016
0.000138906
0.000152959
0.000170885
0.000193869
0.000223616
0.00026109
0.0003084
0.000368167
0.000443833
0.000539086
0.000685218
0.00073179
0.000679277
0.000551512
0.000433261
0.0110732
0.0181437
0.0037125
)
;
    }
    sWall
    {
        Cmu             0.09;
        kappa           0.41;
        E               9.8;
        type            epsilonWallFunction;
        value           uniform 0.00266992;
    }
    nWall
    {
        Cmu             0.09;
        kappa           0.41;
        E               9.8;
        type            epsilonWallFunction;
        value           nonuniform List<scalar> 6(0.000221765 0.000255584 0.000389321 0.000586966 0.000608938 0.000433261);
    }
    sideWalls
    {
        type            empty;
    }
    glass1
    {
        Cmu             0.09;
        kappa           0.41;
        E               9.8;
        type            epsilonWallFunction;
        value           nonuniform List<scalar> 9(0.000522066 0.00131564 0.00238149 0.0038227 0.00578397 0.00848252 0.0114881 0.0120682 0.0110732);
    }
    glass2
    {
        Cmu             0.09;
        kappa           0.41;
        E               9.8;
        type            epsilonWallFunction;
        value           nonuniform List<scalar> 2(0.00143702 0.00112129);
    }
    sun
    {
        Cmu             0.09;
        kappa           0.41;
        E               9.8;
        type            epsilonWallFunction;
        value           nonuniform List<scalar> 
14
(
0.000522066
0.00068615
0.000727104
0.0008404
0.000956778
0.00107667
0.00120594
0.00133289
0.00142257
0.00145342
0.00140943
0.00128746
0.00109942
0.000876749
)
;
    }
    heatsource1
    {
        Cmu             0.09;
        kappa           0.41;
        E               9.8;
        type            epsilonWallFunction;
        value           nonuniform List<scalar> 3(9.2651e-05 0.000158036 0.000221765);
    }
    heatsource2
    {
        Cmu             0.09;
        kappa           0.41;
        E               9.8;
        type            epsilonWallFunction;
        value           nonuniform List<scalar> 4(0.000720204 0.00014151 0.00014151 0.000776843);
    }
    Table_master
    {
        Cmu             0.09;
        kappa           0.41;
        E               9.8;
        type            epsilonWallFunction;
        value           nonuniform List<scalar> 9(0.000223277 0.000153371 0.000109118 8.03605e-05 6.10799e-05 4.77538e-05 3.83046e-05 3.15007e-05 2.66342e-05);
    }
    Table_slave
    {
        Cmu             0.09;
        kappa           0.41;
        E               9.8;
        type            epsilonWallFunction;
        value           nonuniform List<scalar> 9(0.000317449 0.000239582 0.00019247 0.000160772 0.000136414 0.000116462 9.91711e-05 8.29793e-05 6.65786e-05);
    }
    inlet
    {
        type            turbulentMixingLengthDissipationRateInlet;
        mixingLength    0.01;
        phi             phi;
        k               k;
        value           uniform 0.000101881;
    }
    outlet
    {
        type            zeroGradient;
    }
}


// ************************************************************************* //
