/*--------------------------------*- C++ -*----------------------------------*=========                 |
  \      /  F ield         | OpenFOAM: The Open Source CFD Toolbox
   \    /   O peration     | Website:  https://openfoam.org
    \  /    A nd           | Version:  6
     \/     M anipulation  |
\*---------------------------------------------------------------------------*/
FoamFile
{
    version     2.0;
    format      ascii;
    class       volScalarField;
    location    "1900";
    object      PMV;
}
// * * * * * * * * * * * * * * * * * * * * * * * * * * * * * * * * * * * * * //

dimensions      [0 0 0 0 0 0 0];

internalField   nonuniform List<scalar> 
459
(
1.6524166708447672
1.43595445456478
1.409747016754765
1.3867696880367182
1.3713002002273287
1.3619094569735337
1.3592673899086956
1.3632392857662914
1.3731248902932656
1.3905600864719159
1.4164811742494816
1.4524472396528132
1.500018553266908
1.5357852783050805
1.540084708272377
1.6045583122741855
1.5916658788963094
1.5873681054110909
1.5892782450127767
1.5916658788963094
1.5945309796745555
1.5929095035086143
1.5883610735997333
1.5876901109296406
1.5889933060044485
1.5904039669162786
1.5922544116657034
1.5946573433027171
1.597508481382864
1.6027407556960451
1.6125710100247084
1.621268696829111
1.6250878839303269
1.6370220354687244
1.614320106208686
1.4569391014708466
1.4488312424794711
1.4274562627252763
1.4152306556717933
1.407841796041693
1.4060962839334772
1.408191791870655
1.412881414070369
1.421390317593004
1.4367828564107614
1.4606037349701797
1.495644663067712
1.527186030036737
1.5281415274054984
1.5281415274054984
1.527186030036737
1.568875900722235
1.5825926308630458
1.5787721230717575
1.5809746644466949
1.5750486616285782
1.5705210152300535
1.568964523944786
1.569481042189767
1.5705991774650008
1.5713850424476978
1.5720035036529107
1.5727071552110041
1.5731003843526816
1.5746401495786293
1.5771565588582133
1.584825456758155
1.6031258861319844
1.6083780331228268
1.600833698955348
1.656084815040656
1.4598085625915043
1.4842733399641423
1.4747710685853244
1.4722361591447874
1.4718994041737419
1.4734271448641454
1.4738157058175139
1.4695915748266368
1.4626734125131111
1.459467931369459
1.4656327121891337
1.4840348769644867
1.5153409111077316
1.5252750164463103
1.5276637795080819
1.529097018471662
1.478042150963308
1.518683016466208
1.5313561983352222
1.5403336441184259
1.5503863202300607
1.5572105410947674
1.5600761548910032
1.568196627235446
1.5738878516909982
1.5764828819061147
1.5780618849931771
1.5786066373254846
1.578580258916612
1.577643273033886
1.573303270166792
1.5751486606609832
1.5926377605375877
1.5852521074547938
1.5396261113732916
1.7319277846616985
1.4652971143830242
1.5126028130151812
1.5227603171954673
1.5402159828740642
1.5562029721610873
1.5681313503623018
1.5634914259448502
1.5370667552550048
1.5006874218090804
1.4704268228000998
1.4550910794818512
1.4585747686147494
1.4799943951269827
1.5115160573921123
1.529097018471662
1.5131864658298777
1.4727325659128603
1.4719098430598347
1.499649149707713
1.5256243496046324
1.547362115366097
1.5661060537683205
1.5798568570375748
1.585291092667927
1.5837474074943312
1.583167186176844
1.583782536346751
1.5851329564571168
1.5884513788022148
1.5951323378546247
1.607195435214593
1.6294518074591655
1.622890175729118
1.608095177838045
1.5655431383439602
1.4956189836118834
1.8217047757666358
1.4859376855372142
1.5396343662435499
1.5687183061754673
1.617059475511831
1.6716169130916108
1.6952421936119333
1.6484284140981904
1.576481403940916
1.507862798145735
1.458376823116831
1.4317440313279401
1.4289971851298766
1.4465820778574578
1.4761520273783952
1.5028250977211468
1.5093848702177486
1.5059857487902417
1.5146168799790327
1.5392098676958588
1.5688193486659896
1.595745129894672
1.618748310062154
1.6354838351000662
1.6451365473194242
1.6479344781484109
1.6484947138216828
1.648155789966387
1.6471482442160457
1.645050264349395
1.644780379180218
1.6456369842613974
1.6473438922131562
1.6334229174188246
1.6068133822594792
1.5481309934681293
1.5417244924443976
1.6709081130393921
1.6585508521907022
1.4957946890339955
1.911143757938005
1.528811890086792
1.5926323331862255
1.6222346363042532
1.6914254628363763
1.7200473820497308
1.7074159711789558
1.6281116275045324
1.5503986008681805
1.4790342069082194
1.4263942062373085
1.4000273691508167
1.4013975628068476
1.4249267161019272
1.4630860412901965
1.5037995284237027
1.5349013312125983
1.555930874338249
1.5797263147603215
1.6105341380391547
1.6284295704077836
1.6432273028659954
1.6556368073377892
1.664704405829677
1.6723396865300972
1.6785429474676605
1.6833144366479695
1.6861772248235565
1.6871314698910214
1.6861772248235565
1.6828372975825352
1.6775886234514046
1.6699460016404963
1.6440552542849887
1.6096740845952733
1.5479384985418245
1.545151585747741
1.5607010320996773
1.5599943739206195
1.5728258479681865
2.0009632166002196
1.62442605591362
1.7438544904676787
1.7179210415016848
1.714477302869636
1.688399721282754
1.6347300723053073
1.561709863566912
1.4827436534260123
1.414445175720109
1.3710937302903006
1.3599959875675742
1.3787011910044396
1.4213172924902582
1.4793091957793094
1.5414917618323831
1.5821150735950864
1.6055132537140928
1.6269974307914714
1.645613853359132
1.6618410354995752
1.6747255993468235
1.6847458406522484
1.6923796589755697
1.6981046472127166
1.7023981746453274
1.705260423600049
1.7062144882336383
1.7057374570663657
1.703352266788332
1.6976275772599687
1.6904712577624186
1.6823601563219373
1.6706089769564465
1.630177648934305
1.572696383025929
1.5503678808028976
1.539446095892647
1.5142590874475808
1.598237871599228
2.1332011875457604
1.943863405224158
1.8993600725548272
1.799779311462865
1.7409753059494764
1.6585113653155348
1.5545415914784704
1.4479571556091027
1.3606782232243742
1.3067284033916426
1.2943171303466394
1.3210652417159017
1.3775614621349694
1.4551648894696294
1.54599413037357
1.5873681054110909
1.619836469728449
1.6460911573653516
1.666136062466119
1.681883012868366
1.6942880243806524
1.7038293094288188
1.7109846729734761
1.7157546253760572
1.7190934526252508
1.7214782584372519
1.7219552124909758
1.7214782584372519
1.7195704185192862
1.7162316077521416
1.7114616787055374
1.7038293094288188
1.6957192748521543
1.6857000989736546
1.6752027754410566
1.6642271827174873
1.6448509195327452
1.6332942202386782
1.5726903602925215
1.4874271085424835
2.33034516945467
2.199071840440801
2.033060811417324
1.8528316262491509
1.6445774812530924
1.429151918634917
1.2595202899779931
1.156114160325398
1.122847885563412
1.1514610029960728
1.2271717361301366
1.3347508225855231
1.4579974982388815
1.540562414641848
1.595963505448407
1.6398860472478916
1.6680449082703195
1.6871314698910214
1.7014440733676572
1.7128926819393286
1.7210013020109811
1.7231884496379537
1.7223900555786833
1.7205492828187239
1.7181790357146298
1.7147641127073971
1.7098865193466937
1.7032920713875235
1.6956573138690885
1.6859968987361993
1.6744004956616403
1.6620932615685644
1.6503008290850403
1.635989096188839
1.6203399025025989
1.606039291067851
1.5969690056354655
1.591812445787132
1.5807204557768204
1.5508414904335268
-2.9720523333300393
-1.8326667518509774
-1.1356215260818778
-0.38902920961278686
0.1709037002217988
0.6044320958874758
0.9564724679637397
1.2173444291034565
1.3804505015814534
1.5052078823935857
1.5792496927387405
1.6298616923683986
1.651144614601451
1.6673246871457021
1.6795959579256332
1.6886053090497837
1.694048961931603
1.697277049797689
1.698201841502041
1.6971394831059277
1.6951244069969478
1.6925087465660895
1.688639386817241
1.683847886538178
1.678591706001632
1.672992421043479
1.6673090655538485
1.662381451499353
1.6581209498530718
1.6554325668252583
1.6537094348053853
1.65213991003229
1.6517657750315884
1.6532940498861206
1.6638012516147653
1.6991507284617475
1.770622510786327
1.6147975555509735
-2.464188803728744
-0.9973271069305378
0.04537899405231521
0.5765154659950263
0.9006916928209189
1.102977096445367
1.256659782051504
1.375710354297547
1.4676323767823165
1.5355977355374528
1.582260157245196
1.6146244313426616
1.63768448893992
1.6537418817941851
1.6650701017644733
1.6724320224750673
1.6772939443287227
1.6798142326537433
1.68127116092527
1.6821458109296201
1.6822483376291395
1.6815323224458505
1.6804783898460782
1.678615113035998
1.6769967525566152
1.6747961549814046
1.6732576491466105
1.672352649813565
1.673166203069346
1.6761141229383238
1.683545009088232
1.6944227578243949
1.706377692503478
1.7165174543748778
1.7283779327612592
1.7666443131742602
1.7019938564157895
1.6527008551137334
-0.8566452147457289
-0.9954549088867819
-0.8756042957902807
0.3733102476317118
0.8866991994966581
1.1028830311500868
1.2354537570968949
1.338104552247561
1.4210853363173699
1.488497364934159
1.5428707585895094
1.5842457520442519
1.6141822705382747
1.635230470450508
1.6483368096651632
1.656243440162137
1.6600450142810024
1.6614661585288684
1.661156942233471
1.6606427344403962
1.660237709701081
1.6599839480372711
1.6600889179380496
1.660515370182233
1.6607333402964648
1.661269197134852
1.6622346031688418
1.6643668672916683
1.667047700721189
1.6712702702420397
1.6782288142758124
1.6901784213981972
1.7109880275221812
1.7495884129809138
1.7767885048130245
1.7829849178867674
1.7498672911461643
1.708002554623984
1.666594165158035
1.6719554533424243
)
;

boundaryField
{
    ".*"
    {
        type            zeroGradient;
    }
}


// ************************************************************************* //
