// -*- C++ -*-
// File generated by PyFoam - sorry for the ugliness

FoamFile
{
 version 2.0;
 format ascii;
 class volScalarField;
 location "400";
 object T;
}

dimensions [ 0 0 0 1 0 0 0 ];

internalField nonuniform List<scalar> 459
(
  302.102
  301.811
  301.802
  301.802
  301.802
  301.802
  301.8
  301.797
  301.79
  301.781
  301.771
  301.762
  301.755
  301.751
  301.755
  301.818
  301.806
  301.811
  301.82
  301.825
  301.828
  301.828
  301.828
  301.827
  301.827
  301.827
  301.827
  301.827
  301.828
  301.829
  301.83
  301.833
  301.838
  301.864
  302.296
  301.853
  301.83
  301.837
  301.845
  301.85
  301.852
  301.847
  301.834
  301.815
  301.795
  301.778
  301.767
  301.759
  301.749
  301.72
  301.663
  301.819
  301.807
  301.816
  301.827
  301.836
  301.841
  301.836
  301.83
  301.823
  301.817
  301.811
  301.805
  301.8
  301.796
  301.794
  301.793
  301.795
  301.803
  301.846
  302.499
  301.907
  301.864
  301.879
  301.898
  301.913
  301.921
  301.916
  301.892
  301.857
  301.822
  301.797
  301.782
  301.775
  301.769
  301.757
  301.731
  301.818
  301.823
  301.837
  301.856
  301.873
  301.883
  301.871
  301.859
  301.848
  301.837
  301.828
  301.819
  301.81
  301.803
  301.797
  301.796
  301.795
  301.799
  301.841
  302.704
  301.974
  301.901
  301.922
  301.956
  301.988
  302.008
  302
  301.959
  301.901
  301.847
  301.81
  301.793
  301.791
  301.793
  301.792
  301.782
  301.798
  301.818
  301.848
  301.879
  301.908
  301.932
  301.949
  301.966
  301.981
  301.994
  302.005
  302.014
  302.019
  302.023
  302.026
  302.023
  301.941
  301.871
  301.829
  301.85
  302.902
  302.061
  301.946
  301.962
  302.009
  302.062
  302.1
  302.084
  302.02
  301.935
  301.863
  301.817
  301.799
  301.802
  301.816
  301.829
  301.841
  301.86
  301.886
  301.917
  301.95
  301.98
  302.006
  302.028
  302.05
  302.068
  302.082
  302.094
  302.1
  302.1
  302.096
  302.086
  302.068
  302.015
  301.937
  301.869
  301.856
  302.008
  302.052
  302.058
  303.082
  302.176
  302.028
  302.021
  302.072
  302.15
  302.181
  302.139
  302.05
  301.949
  301.864
  301.813
  301.798
  301.811
  301.84
  301.87
  301.898
  301.926
  301.959
  301.993
  302.028
  302.058
  302.084
  302.106
  302.125
  302.14
  302.152
  302.16
  302.163
  302.159
  302.148
  302.13
  302.106
  302.062
  301.995
  301.921
  301.883
  301.935
  301.959
  302.005
  303.25
  302.361
  302.216
  302.193
  302.221
  302.274
  302.249
  302.158
  302.035
  301.916
  301.83
  301.788
  301.789
  301.823
  301.874
  301.925
  301.969
  302.007
  302.043
  302.078
  302.109
  302.137
  302.16
  302.177
  302.191
  302.201
  302.208
  302.211
  302.208
  302.201
  302.186
  302.165
  302.138
  302.099
  302.046
  301.982
  301.941
  301.948
  301.962
  301.996
  303.493
  302.831
  302.673
  302.593
  302.542
  302.433
  302.269
  302.086
  301.921
  301.803
  301.745
  301.743
  301.783
  301.853
  301.935
  302.006
  302.06
  302.1
  302.133
  302.162
  302.188
  302.208
  302.224
  302.235
  302.242
  302.245
  302.245
  302.241
  302.235
  302.225
  302.212
  302.192
  302.167
  302.136
  302.098
  302.056
  302.038
  302.062
  302.084
  302.234
  303.844
  303.531
  303.237
  302.94
  302.608
  302.23
  301.911
  301.691
  301.58
  301.565
  301.621
  301.714
  301.821
  301.936
  302.05
  302.117
  302.16
  302.19
  302.215
  302.236
  302.253
  302.265
  302.273
  302.276
  302.275
  302.272
  302.267
  302.26
  302.252
  302.244
  302.237
  302.233
  302.232
  302.237
  302.252
  302.279
  302.32
  302.361
  302.386
  302.455
  293.471
  295.425
  297.221
  298.591
  299.587
  300.341
  300.92
  301.355
  301.68
  301.895
  302.021
  302.11
  302.174
  302.217
  302.246
  302.268
  302.284
  302.296
  302.304
  302.307
  302.307
  302.304
  302.299
  302.294
  302.289
  302.284
  302.28
  302.277
  302.275
  302.274
  302.277
  302.286
  302.302
  302.326
  302.357
  302.387
  302.413
  302.443
  294.687
  297.048
  299.099
  300.121
  300.764
  301.212
  301.537
  301.785
  301.968
  302.094
  302.176
  302.232
  302.27
  302.297
  302.315
  302.327
  302.335
  302.339
  302.339
  302.337
  302.333
  302.327
  302.322
  302.317
  302.312
  302.307
  302.304
  302.301
  302.299
  302.299
  302.301
  302.307
  302.318
  302.335
  302.357
  302.38
  302.384
  302.422
  300.09
  298.122
  298.015
  300.206
  301.127
  301.513
  301.738
  301.906
  302.038
  302.141
  302.22
  302.278
  302.318
  302.347
  302.367
  302.38
  302.388
  302.392
  302.392
  302.39
  302.385
  302.38
  302.374
  302.367
  302.361
  302.355
  302.35
  302.344
  302.339
  302.334
  302.329
  302.326
  302.324
  302.324
  302.327
  302.339
  302.351
  302.361
  302.367
  302.409
)
;

boundaryField
{
  floor
  {
    type wallHeatTransfer;
    Tinf uniform 305.2;
    alphaWall uniform 0.24;
    value nonuniform List<scalar> 29
(
  302.103
  302.414
  302.336
  302.298
  302.302
  302.315
  302.332
  302.355
  302.38
  302.406
  302.431
  302.455
  302.478
  302.501
  302.523
  302.545
  302.567
  302.592
  302.605
  302.661
  302.661
  302.511
  302.436
  302.407
  302.103
  302.414
  302.397
  302.196
  302.083
)
;
  }
  ceiling
  {
    type wallHeatTransfer;
    Tinf uniform 303.2;
    alphaWall uniform 0.24;
    value nonuniform List<scalar> 43
(
  300.287
  298.426
  298.319
  300.373
  301.248
  301.616
  301.83
  301.991
  302.119
  302.22
  302.299
  302.359
  302.402
  302.433
  302.455
  302.471
  302.481
  302.486
  302.489
  302.489
  302.486
  302.482
  302.477
  302.472
  302.466
  302.46
  302.454
  302.448
  302.441
  302.433
  302.426
  302.419
  302.413
  302.409
  302.408
  302.414
  302.424
  302.434
  302.444
  302.487
  303.816
  303.518
  295.173
)
;
  }
  sWall
  {
    type wallHeatTransfer;
    Tinf uniform 315.2;
    alphaWall uniform 0.36;
    value uniform 301.486;
  }
  nWall
  {
    type wallHeatTransfer;
    Tinf uniform 307.2;
    alphaWall uniform 0.36;
    value nonuniform List<scalar> 6
(
  302.922
  302.841
  302.722
  303.08
  303.055
  303.085
)
;
  }
  sideWalls
  {
    type empty;
  }
  glass1
  {
    type wallHeatTransfer;
    Tinf uniform 315.2;
    alphaWall uniform 4.3;
    value nonuniform List<scalar> 9
(
  310.891
  310.152
  309.698
  309.361
  309.086
  308.84
  308.667
  308.761
  309.028
)
;
  }
  glass2
  {
    type wallHeatTransfer;
    Tinf uniform 307.2;
    alphaWall uniform 4.3;
    value nonuniform List<scalar> 2
(
  305.161
  305.347
)
;
  }
  sun
  {
    type wallHeatTransfer;
    Tinf uniform 305.2;
    alphaWall uniform 0.24;
    value nonuniform List<scalar> 14
(
  302.412
  302.128
  302.115
  302.104
  302.094
  302.085
  302.075
  302.065
  302.055
  302.046
  302.04
  302.04
  302.049
  302.069
)
;
  }
  heatsource1
  {
    type fixedGradient;
    gradient uniform 0;
  }
  heatsource2
  {
    type fixedGradient;
    gradient uniform 0;
  }
  Table_master
  {
    type zeroGradient;
  }
  Table_slave
  {
    type zeroGradient;
  }
  inlet
  {
    type fixedValue;
    value uniform 296.15;
  }
  outlet
  {
    type zeroGradient;
  }
} 	// ************************************************************************* //

