/*--------------------------------*- C++ -*----------------------------------*\
  =========                 |
  \\      /  F ield         | OpenFOAM: The Open Source CFD Toolbox
   \\    /   O peration     | Website:  https://openfoam.org
    \\  /    A nd           | Version:  6
     \\/     M anipulation  |
\*---------------------------------------------------------------------------*/
FoamFile
{
    version     2.0;
    format      ascii;
    class       volScalarField;
    location    "2400";
    object      alphat;
}
// * * * * * * * * * * * * * * * * * * * * * * * * * * * * * * * * * * * * * //

dimensions      [1 -1 -1 0 0 0 0];

internalField   nonuniform List<scalar> 
459
(
0.00132531
0.00145308
0.00148156
0.00155487
0.00162362
0.00168888
0.00175408
0.0018136
0.00185338
0.00186659
0.00184742
0.00179226
0.00169994
0.00157565
0.00143463
0.000599758
0.000724483
0.000815305
0.000813869
0.000787097
0.000750844
0.000704259
0.000657867
0.000615772
0.000578432
0.000545393
0.000516063
0.000489995
0.000466608
0.000445073
0.000424348
0.000402974
0.000389591
0.000356931
0.00180214
0.00452646
0.00438069
0.00511508
0.0058392
0.00655155
0.00715312
0.00762729
0.00804474
0.00837224
0.0085678
0.00858824
0.00836816
0.00773896
0.00601057
0.00147445
0.000861454
0.000636664
0.0013406
0.001872
0.00226201
0.00247255
0.00246427
0.00196249
0.00168846
0.0014941
0.00134561
0.00122789
0.00113219
0.00104965
0.000972513
0.000897304
0.000830233
0.000770558
0.000915669
0.000473151
0.00219474
0.00618596
0.00547058
0.00684499
0.00754323
0.00806343
0.00846591
0.00880791
0.00916888
0.009532
0.00985034
0.0100701
0.0101292
0.00992107
0.00914292
0.00692045
0.00151421
0.00123081
0.00180202
0.0023378
0.00282878
0.00316574
0.00308013
0.000999951
0.000882214
0.000787498
0.000711086
0.000648888
0.000597732
0.000555338
0.000520257
0.000491926
0.000531767
0.000615722
0.00103837
0.000552375
0.00256792
0.00786081
0.00553065
0.00725072
0.00785273
0.00807778
0.00824368
0.00845474
0.00876764
0.00916154
0.00957404
0.00993873
0.0101835
0.0102181
0.0099777
0.00910871
0.00619084
0.00178549
0.00222398
0.00289253
0.00355663
0.00408948
0.0044113
0.00412149
0.00112438
0.00102358
0.000951435
0.000895954
0.000848141
0.000804552
0.000762543
0.00071851
0.000667608
0.000625877
0.000645135
0.00121659
0.000611126
0.00294599
0.00998509
0.00611722
0.00704509
0.0077988
0.00787505
0.00785008
0.00800729
0.00829458
0.00871415
0.00918323
0.0096123
0.00989547
0.00997067
0.00983253
0.00944278
0.00857401
0.00712645
0.00662969
0.00647852
0.00643404
0.00639687
0.00631018
0.00603483
0.005054
0.00458358
0.00430676
0.00409018
0.00386347
0.00353852
0.00311491
0.0026142
0.00206868
0.00152968
0.00113065
0.00119128
0.00080041
0.000744558
0.000889502
0.000996001
0.00334495
0.0122872
0.00836282
0.00718414
0.00773373
0.00785764
0.00780342
0.00790333
0.00812984
0.0085186
0.00901975
0.00949893
0.00980564
0.00984934
0.00964518
0.0092975
0.00891944
0.00857023
0.00837737
0.00820875
0.00799153
0.00773139
0.00743733
0.00708573
0.00660948
0.00619917
0.00584717
0.00551991
0.00519481
0.00484078
0.00439465
0.00383968
0.00317993
0.00246146
0.00183756
0.00136796
0.00107121
0.000944481
0.00136705
0.00104469
0.00369857
0.0138443
0.0114975
0.00922835
0.0088434
0.00851397
0.00817512
0.00804352
0.0081928
0.0086098
0.00918086
0.00971512
0.0100218
0.00999768
0.00968484
0.00927617
0.00901732
0.00898602
0.00899686
0.00884907
0.00852409
0.00808931
0.00759638
0.00707709
0.00656403
0.0061175
0.00573061
0.00538451
0.0050733
0.00480075
0.00456223
0.00418098
0.00364879
0.00301384
0.00242111
0.00188912
0.00154044
0.00147182
0.001544
0.00120356
0.00375676
0.0120569
0.0109
0.0100746
0.00928321
0.00849925
0.00802363
0.00797797
0.00834397
0.00899914
0.00973518
0.0103051
0.010517
0.0103136
0.00981595
0.00932621
0.00913607
0.00918245
0.00906528
0.00866481
0.00807154
0.00738586
0.00669347
0.00606827
0.00555417
0.00515023
0.00482673
0.0045651
0.00436304
0.00422695
0.00416291
0.00412012
0.00380488
0.00338419
0.00302898
0.00288101
0.00308476
0.00375327
0.00472054
0.00185712
0.0036464
0.0043029
0.00474232
0.00485528
0.00511468
0.00568326
0.00657618
0.00772858
0.00898673
0.0101404
0.0109681
0.0112878
0.011059
0.0104208
0.00969743
0.00926148
0.00899373
0.00868811
0.00816949
0.00744184
0.00661666
0.00581784
0.00513915
0.00461582
0.00422898
0.00393694
0.00370389
0.0035089
0.00333929
0.00318519
0.00303851
0.0029041
0.00279765
0.00272881
0.00272016
0.0027564
0.00275363
0.00263744
0.00245045
0.00170833
0.00172967
0.00438889
0.00792887
0.0102166
0.0117175
0.0126294
0.0130021
0.0129169
0.0124638
0.0117401
0.0107221
0.0096916
0.00890549
0.00835726
0.0078049
0.0071235
0.0063359
0.00552557
0.00477833
0.00417304
0.00372941
0.00341604
0.00319142
0.00302366
0.00289383
0.00279261
0.00271667
0.0026671
0.00264931
0.00266036
0.0026873
0.00272677
0.00276586
0.00276804
0.00267833
0.00247775
0.00218042
0.00137662
0.00261794
0.00807047
0.0110457
0.0118079
0.0120293
0.0118405
0.0112744
0.0104702
0.00956151
0.00867314
0.0078358
0.00713247
0.00654791
0.00596377
0.00533125
0.00469605
0.00411271
0.00361785
0.00322566
0.00292566
0.00271228
0.00256557
0.0024695
0.00241431
0.00239392
0.00240289
0.00243432
0.00248273
0.00255663
0.00265043
0.00275975
0.00287585
0.00297948
0.00305331
0.00304065
0.00304369
0.00275283
0.0013937
0.00231576
0.00245698
0.00255844
0.00273836
0.00262248
0.00251902
0.00243442
0.00231313
0.00215029
0.00195539
0.00173869
0.0015191
0.00132303
0.00116603
0.00104822
0.000961661
0.000898027
0.000851549
0.000819097
0.000799005
0.000789956
0.000790366
0.000797472
0.000810302
0.000828288
0.000851197
0.000879066
0.000912246
0.000951563
0.000998071
0.00105112
0.00111128
0.00117902
0.00125496
0.00133907
0.00145063
0.00148255
0.00144598
0.00134883
0.00124422
)
;

boundaryField
{
    floor
    {
        type            compressible::alphatWallFunction;
        Prt             0.85;
        value           nonuniform List<scalar> 
29
(
0.000202133
8.43053e-05
0.000102755
0.000115946
0.000115739
0.000111869
0.000106604
9.97919e-05
9.29539e-05
8.66984e-05
8.11056e-05
7.61199e-05
7.16623e-05
6.76741e-05
6.40731e-05
6.07372e-05
5.75073e-05
5.41552e-05
5.20448e-05
4.68549e-05
4.68543e-05
6.50835e-05
7.71776e-05
8.60065e-05
0.000202131
8.43043e-05
8.98089e-05
0.000174358
0.000248954
)
;
    }
    ceiling
    {
        type            compressible::alphatWallFunction;
        Prt             0.85;
        value           nonuniform List<scalar> 
43
(
0.000317735
0.000335782
0.000348683
0.000371584
0.000357013
0.000343916
0.00033316
0.000317658
0.0002967
0.000271385
0.000242909
0.000213652
0.000187125
0.000165563
0.000149165
0.000136981
0.000127942
0.000121293
0.000116625
0.000113723
0.000112414
0.000112473
0.000113502
0.000115356
0.000117949
0.000121243
0.000125235
0.000129969
0.000135552
0.000142122
0.000149573
0.000157969
0.000167363
0.000177818
0.000189316
0.000204442
0.000208746
0.000203816
0.000190647
0.000176349
0.000484472
0.00056406
0.000355981
)
;
    }
    sWall
    {
        type            compressible::alphatWallFunction;
        Prt             0.85;
        value           uniform 0.000316463;
    }
    nWall
    {
        type            compressible::alphatWallFunction;
        Prt             0.85;
        value           nonuniform List<scalar> 6(0.000141482 0.000148317 0.000170382 0.000194077 0.000196392 0.000176002);
    }
    sideWalls
    {
        type            empty;
    }
    glass1
    {
        type            compressible::alphatWallFunction;
        Prt             0.85;
        value           nonuniform List<scalar> 9(0.000182557 0.000245531 0.000296142 0.000343447 0.000390705 0.00043994 0.000483126 0.000490339 0.000477186);
    }
    glass2
    {
        type            compressible::alphatWallFunction;
        Prt             0.85;
        value           nonuniform List<scalar> 2(0.000256424 0.000236973);
    }
    sun
    {
        type            compressible::alphatWallFunction;
        Prt             0.85;
        value           nonuniform List<scalar> 
14
(
0.000187316
0.000204629
0.000208466
0.000218311
0.000227497
0.000236176
0.000244809
0.000252661
0.000257891
0.000259626
0.000257108
0.000249847
0.000237639
0.000221088
)
;
    }
    heatsource1
    {
        type            compressible::alphatWallFunction;
        Prt             0.85;
        value           nonuniform List<scalar> 3(0.00010584 0.000126752 0.000141857);
    }
    heatsource2
    {
        type            compressible::alphatWallFunction;
        Prt             0.85;
        value           nonuniform List<scalar> 4(0.000207682 0.000122739 0.000122737 0.000213029);
    }
    Table_master
    {
        type            compressible::alphatWallFunction;
        Prt             0.85;
        value           nonuniform List<scalar> 9(0.00014241 0.000125708 0.00011208 0.000100942 9.177e-05 8.41453e-05 7.77655e-05 7.24405e-05 6.81071e-05);
    }
    Table_slave
    {
        type            compressible::alphatWallFunction;
        Prt             0.85;
        value           nonuniform List<scalar> 9(0.000159817 0.000145737 0.00013556 0.000127673 0.000120829 0.00011455 0.00010846 0.000102033 9.45437e-05);
    }
    inlet
    {
        type            fixedValue;
        value           uniform 1.94e-05;
    }
    outlet
    {
        type            zeroGradient;
    }
}


// ************************************************************************* //
