// -*- C++ -*-
// File generated by PyFoam - sorry for the ugliness

FoamFile
{
 version 2.0;
 format ascii;
 class volVectorField;
 location "2400";
 object U;
}

dimensions [ 0 1 -1 0 0 0 0 ];

internalField nonuniform List<vector> 459
(
  (0.0332329 0.088265 0)
  (-0.171747 0.0265118 0)
  (-0.196994 0.0178646 0)
  (-0.227718 0.0118646 0)
  (-0.24931 0.00530308 0)
  (-0.260798 -0.00156011 0)
  (-0.260721 -0.00873126 0)
  (-0.248448 -0.0161677 0)
  (-0.224932 -0.023111 0)
  (-0.192259 -0.0284583 0)
  (-0.153899 -0.0313833 0)
  (-0.113648 -0.0315962 0)
  (-0.0750913 -0.0294297 0)
  (-0.0432783 -0.0262822 0)
  (-0.0332933 -0.0239252 0)
  (-0.00316945 0.00874677 0)
  (-0.0282008 -0.0195859 0)
  (-0.00256398 -0.0296337 0)
  (0.021925 -0.0221397 0)
  (0.0393658 -0.0149731 0)
  (0.0526399 -0.00960106 0)
  (0.0606461 -0.00570318 0)
  (0.0646685 -0.00366346 0)
  (0.0664624 -0.00279556 0)
  (0.0673711 -0.00238262 0)
  (0.0679407 -0.00211311 0)
  (0.0682452 -0.00189046 0)
  (0.0682125 -0.00162153 0)
  (0.0676248 -0.00112903 0)
  (0.0658947 -1.82033e-05 0)
  (0.0617689 0.00226736 0)
  (0.0538883 0.00466305 0)
  (0.0466943 0.00663258 0)
  (-0.0142277 0.0229861 0)
  (0.20953 0.180337 0)
  (-0.158765 0.0697824 0)
  (-0.157477 0.0529999 0)
  (-0.188897 0.0403491 0)
  (-0.210079 0.0261568 0)
  (-0.221663 0.010489 0)
  (-0.222133 -0.00673923 0)
  (-0.210856 -0.024604 0)
  (-0.189361 -0.0406356 0)
  (-0.160054 -0.0523993 0)
  (-0.126429 -0.0583627 0)
  (-0.0919442 -0.0582695 0)
  (-0.059736 -0.0527168 0)
  (-0.0331961 -0.0432528 0)
  (-0.0165684 -0.0317633 0)
  (-0.00295971 -0.0138065 0)
  (-0.00361448 0.0170661 0)
  (0.0722381 0.0367062 0)
  (0.0313466 -0.0207462 0)
  (0.039227 -0.0341516 0)
  (0.0513484 -0.0295418 0)
  (0.0608689 -0.0206599 0)
  (0.0673935 -0.0123686 0)
  (0.0700959 -0.00513884 0)
  (0.0705259 -0.0011175 0)
  (0.0704221 0.000561535 0)
  (0.0705037 0.00130661 0)
  (0.0706875 0.00175781 0)
  (0.0708198 0.00213783 0)
  (0.0708515 0.00263115 0)
  (0.0707263 0.00359332 0)
  (0.0698787 0.00597856 0)
  (0.0657253 0.0126066 0)
  (0.0552931 0.0181193 0)
  (0.050599 0.0217979 0)
  (-0.0553631 0.0495336 0)
  (0.37067 0.269327 0)
  (-0.173733 0.11052 0)
  (-0.117727 0.0852437 0)
  (-0.1476 0.0629278 0)
  (-0.166068 0.0396818 0)
  (-0.176291 0.0143728 0)
  (-0.175726 -0.013394 0)
  (-0.163613 -0.0416411 0)
  (-0.142649 -0.0660169 0)
  (-0.115852 -0.0828709 0)
  (-0.0867312 -0.0903903 0)
  (-0.0579745 -0.0889081 0)
  (-0.0316109 -0.0795259 0)
  (-0.00971585 -0.0641318 0)
  (0.00671254 -0.0431892 0)
  (0.0179514 -0.0176505 0)
  (0.0236704 0.0192724 0)
  (0.120649 -0.0370104 0)
  (0.0796229 -0.0447587 0)
  (0.0738958 -0.0427763 0)
  (0.0759664 -0.0352993 0)
  (0.0775888 -0.0257433 0)
  (0.0787125 -0.0174592 0)
  (0.0771114 -0.0138872 0)
  (0.07249 -0.0097152 0)
  (0.0692464 -0.00744297 0)
  (0.0678078 -0.00613943 0)
  (0.0672043 -0.00530213 0)
  (0.066914 -0.00471349 0)
  (0.0669584 -0.00416193 0)
  (0.0678387 -0.00326243 0)
  (0.0708272 5.89827e-05 0)
  (0.0684773 0.0181609 0)
  (0.0538035 0.0307329 0)
  (0.0571741 0.0389752 0)
  (-0.0921284 0.076697 0)
  (0.51546 0.340657 0)
  (-0.206594 0.14646 0)
  (-0.0765201 0.112312 0)
  (-0.103773 0.0816637 0)
  (-0.11647 0.0515398 0)
  (-0.12238 0.0179758 0)
  (-0.117051 -0.0202503 0)
  (-0.101837 -0.0588005 0)
  (-0.0810829 -0.0901641 0)
  (-0.0579381 -0.110314 0)
  (-0.0353471 -0.117959 0)
  (-0.0144756 -0.114673 0)
  (0.00435673 -0.101734 0)
  (0.0199748 -0.0821244 0)
  (0.033595 -0.0579665 0)
  (0.0485406 -0.0306574 0)
  (0.0712073 -0.000481178 0)
  (0.103821 0.0133966 0)
  (0.109773 -0.0290528 0)
  (0.0942119 -0.0389047 0)
  (0.0848106 -0.0364855 0)
  (0.080162 -0.0308924 0)
  (0.0770052 -0.0234732 0)
  (0.0753737 -0.0144098 0)
  (0.0774251 -0.0085732 0)
  (0.0825776 -0.00655986 0)
  (0.0868122 -0.00538628 0)
  (0.0895633 -0.00446375 0)
  (0.0910771 -0.00335515 0)
  (0.0907079 -0.00178714 0)
  (0.0874228 0.000440948 0)
  (0.0799747 0.00363103 0)
  (0.065359 0.00839128 0)
  (0.0529995 0.0297783 0)
  (0.0402972 0.047252 0)
  (0.0606991 0.0604255 0)
  (-0.135054 0.0999557 0)
  (0.639614 0.395761 0)
  (-0.247071 0.17568 0)
  (-0.0367657 0.127288 0)
  (-0.0579852 0.0917271 0)
  (-0.0621034 0.0574603 0)
  (-0.059614 0.0172735 0)
  (-0.0426536 -0.0311409 0)
  (-0.023293 -0.0771471 0)
  (-0.00460181 -0.111281 0)
  (0.0118919 -0.130955 0)
  (0.0245462 -0.135886 0)
  (0.0345089 -0.129716 0)
  (0.0421987 -0.114825 0)
  (0.0485084 -0.0939112 0)
  (0.054669 -0.0696437 0)
  (0.0625957 -0.0451977 0)
  (0.0749949 -0.0265835 0)
  (0.0858837 -0.0255266 0)
  (0.0869378 -0.0342189 0)
  (0.0798373 -0.0345943 0)
  (0.0711352 -0.0306065 0)
  (0.0643877 -0.0255872 0)
  (0.0596002 -0.019929 0)
  (0.0570686 -0.0136759 0)
  (0.0573724 -0.00774373 0)
  (0.0600978 -0.00489032 0)
  (0.0630669 -0.00371877 0)
  (0.0658118 -0.00263664 0)
  (0.0681772 -0.000609991 0)
  (0.0696837 0.00283191 0)
  (0.0691135 0.00772418 0)
  (0.0659479 0.0142169 0)
  (0.0594977 0.0230482 0)
  (0.0518224 0.039461 0)
  (0.0402383 0.0590751 0)
  (0.0683138 0.0804762 0)
  (-0.0349273 0.112487 0)
  (0.0474142 0.0269371 0)
  (-0.0691375 -0.0378701 0)
  (-0.286074 -0.0614346 0)
  (0.72897 0.441438 0)
  (-0.286285 0.194873 0)
  (-0.00690497 0.121518 0)
  (-0.009614 0.0895863 0)
  (-0.000678689 0.0539486 0)
  (0.019943 0.00467524 0)
  (0.0495775 -0.0509684 0)
  (0.0692726 -0.0950332 0)
  (0.0815057 -0.124493 0)
  (0.0870026 -0.139408 0)
  (0.0871634 -0.141186 0)
  (0.0837701 -0.132437 0)
  (0.0783364 -0.115978 0)
  (0.0724568 -0.0947433 0)
  (0.0675794 -0.0714926 0)
  (0.0649738 -0.0492747 0)
  (0.065361 -0.0321792 0)
  (0.0656019 -0.0252285 0)
  (0.0617391 -0.0251469 0)
  (0.053974 -0.0248947 0)
  (0.0454103 -0.022622 0)
  (0.0384727 -0.019431 0)
  (0.0336828 -0.0158604 0)
  (0.031303 -0.01207 0)
  (0.0314223 -0.00885068 0)
  (0.0335462 -0.00760167 0)
  (0.0365715 -0.00727643 0)
  (0.0400462 -0.00652558 0)
  (0.0437345 -0.00429287 0)
  (0.0474558 0.000259929 0)
  (0.0502723 0.00712131 0)
  (0.051458 0.0159092 0)
  (0.0513524 0.0269614 0)
  (0.0515142 0.0422206 0)
  (0.0491489 0.0613196 0)
  (0.0764743 0.0860926 0)
  (0.0487585 0.10525 0)
  (0.0974877 0.0697777 0)
  (0.122236 0.0453396 0)
  (-0.138519 -0.0100751 0)
  (0.785875 0.483203 0)
  (-0.304117 0.179276 0)
  (0.0241268 0.0652484 0)
  (0.0579141 0.0549327 0)
  (0.0842236 0.0287955 0)
  (0.128464 -0.0255148 0)
  (0.157036 -0.0738336 0)
  (0.170716 -0.108079 0)
  (0.171564 -0.128199 0)
  (0.162293 -0.135598 0)
  (0.146084 -0.132147 0)
  (0.126051 -0.120303 0)
  (0.104891 -0.102849 0)
  (0.0848482 -0.0824516 0)
  (0.0675105 -0.061318 0)
  (0.053855 -0.0418936 0)
  (0.0440986 -0.0271257 0)
  (0.0365947 -0.0194155 0)
  (0.0290418 -0.0171665 0)
  (0.0209184 -0.0165201 0)
  (0.0133631 -0.0154199 0)
  (0.00746225 -0.013974 0)
  (0.00354209 -0.0124594 0)
  (0.00173834 -0.0110066 0)
  (0.00200314 -0.0100951 0)
  (0.00383785 -0.0102346 0)
  (0.00654245 -0.0107202 0)
  (0.0098511 -0.0105873 0)
  (0.0137956 -0.00890397 0)
  (0.018505 -0.00459493 0)
  (0.0252295 0.0032334 0)
  (0.0309013 0.01289 0)
  (0.0364452 0.0240196 0)
  (0.0437779 0.037533 0)
  (0.0511443 0.0531106 0)
  (0.0763017 0.0732685 0)
  (0.088596 0.0805971 0)
  (0.125377 0.0523453 0)
  (0.16795 0.0428418 0)
  (-0.0320824 0.0967001 0)
  (0.893867 0.482586 0)
  (-0.0560388 0.157631 0)
  (0.119681 -0.023666 0)
  (0.208331 -0.059901 0)
  (0.254473 -0.0735238 0)
  (0.279251 -0.0902092 0)
  (0.287812 -0.105567 0)
  (0.279664 -0.115223 0)
  (0.257034 -0.118053 0)
  (0.224208 -0.114287 0)
  (0.185918 -0.104785 0)
  (0.146274 -0.0908043 0)
  (0.108571 -0.0742027 0)
  (0.0751216 -0.0567786 0)
  (0.0471284 -0.0397459 0)
  (0.0253706 -0.0248721 0)
  (0.00991489 -0.0144941 0)
  (-0.000790782 -0.00958384 0)
  (-0.00876696 -0.00866118 0)
  (-0.015476 -0.00901445 0)
  (-0.021079 -0.00934364 0)
  (-0.0253638 -0.00956941 0)
  (-0.028296 -0.00981464 0)
  (-0.0298933 -0.0101971 0)
  (-0.0302995 -0.0109163 0)
  (-0.0299033 -0.0120366 0)
  (-0.0291047 -0.0131923 0)
  (-0.0280043 -0.0138903 0)
  (-0.0264152 -0.0136169 0)
  (-0.0238877 -0.0117554 0)
  (-0.0192603 -0.00750497 0)
  (-0.00872203 -0.000208171 0)
  (-0.000401173 0.0085332 0)
  (0.0108353 0.0171322 0)
  (0.022423 0.0248226 0)
  (0.0437194 0.0335999 0)
  (0.062304 0.0258113 0)
  (0.0812201 -0.00559963 0)
  (0.142812 0.0448839 0)
  (-0.455432 0.222083 0)
  (1.04621 0.426949 0)
  (0.495592 0.278735 0)
  (0.514763 0.172827 0)
  (0.549838 0.0944952 0)
  (0.529688 0.0404472 0)
  (0.481783 -0.00228797 0)
  (0.42642 -0.0334453 0)
  (0.365922 -0.0523167 0)
  (0.30114 -0.0602463 0)
  (0.235482 -0.0597827 0)
  (0.173056 -0.0536411 0)
  (0.116765 -0.0438175 0)
  (0.0688776 -0.0325074 0)
  (0.0298556 -0.0213965 0)
  (-0.00106039 -0.0113344 0)
  (-0.0219654 -0.0046436 0)
  (-0.0338892 -0.00187094 0)
  (-0.0411879 -0.00150816 0)
  (-0.0464155 -0.00246473 0)
  (-0.0509116 -0.0038246 0)
  (-0.0548634 -0.00516156 0)
  (-0.0582619 -0.00644642 0)
  (-0.0611434 -0.00771 0)
  (-0.0636144 -0.0089835 0)
  (-0.0658859 -0.0102923 0)
  (-0.0682914 -0.0115535 0)
  (-0.0711763 -0.0124844 0)
  (-0.0748324 -0.0126743 0)
  (-0.0795841 -0.0116001 0)
  (-0.0859259 -0.00858597 0)
  (-0.0945618 -0.00282103 0)
  (-0.105116 0.00621568 0)
  (-0.116077 0.0181327 0)
  (-0.133403 0.0332628 0)
  (-0.160777 0.0514002 0)
  (-0.200608 0.0704611 0)
  (-0.256851 0.0851026 0)
  (-0.320202 0.0923448 0)
  (-0.391761 0.0929349 0)
  (-0.66037 0.0874092 0)
  (-0.18004 -0.0206288 0)
  (0.100169 -0.0358705 0)
  (0.176996 -0.0552782 0)
  (0.163965 -0.0477155 0)
  (0.144634 -0.0345351 0)
  (0.120458 -0.0225595 0)
  (0.0884141 -0.0123385 0)
  (0.052551 -0.00439104 0)
  (0.0177093 0.00103732 0)
  (-0.0151382 0.0045826 0)
  (-0.0386037 0.00573419 0)
  (-0.0557112 0.00567947 0)
  (-0.0666253 0.00457197 0)
  (-0.0723447 0.00237323 0)
  (-0.0756037 -0.000209237 0)
  (-0.0779146 -0.00285508 0)
  (-0.080087 -0.00551562 0)
  (-0.0825458 -0.00795274 0)
  (-0.0854148 -0.00988426 0)
  (-0.0884721 -0.0113462 0)
  (-0.0916565 -0.0124119 0)
  (-0.0950828 -0.0131268 0)
  (-0.098914 -0.0135137 0)
  (-0.103314 -0.0134931 0)
  (-0.108368 -0.0128239 0)
  (-0.114017 -0.011112 0)
  (-0.120012 -0.00785057 0)
  (-0.125876 -0.00248241 0)
  (-0.13088 0.00534637 0)
  (-0.134648 0.0159915 0)
  (-0.137646 0.0304613 0)
  (-0.140457 0.0492165 0)
  (-0.144211 0.0711973 0)
  (-0.149539 0.0917655 0)
  (-0.15292 0.0994577 0)
  (-0.13511 0.0722809 0)
  (-0.081952 -0.0315444 0)
  (-0.289205 -0.22559 0)
  (0.0357638 0.198068 0)
  (0.0131945 0.0637669 0)
  (-0.0324774 0.0118648 0)
  (-0.0561364 0.0110717 0)
  (-0.0744321 0.0171699 0)
  (-0.0878963 0.0217809 0)
  (-0.096891 0.0255691 0)
  (-0.103658 0.0287165 0)
  (-0.108493 0.0306441 0)
  (-0.111681 0.0310999 0)
  (-0.112999 0.0305945 0)
  (-0.112991 0.0303589 0)
  (-0.111888 0.0305572 0)
  (-0.11028 0.03124 0)
  (-0.108788 0.0325988 0)
  (-0.107676 0.0344646 0)
  (-0.107086 0.0363499 0)
  (-0.107059 0.0376795 0)
  (-0.107511 0.0378594 0)
  (-0.108453 0.0369005 0)
  (-0.109846 0.0354645 0)
  (-0.111667 0.0337191 0)
  (-0.113879 0.0317628 0)
  (-0.116429 0.0296924 0)
  (-0.119211 0.0276188 0)
  (-0.122042 0.0256556 0)
  (-0.124627 0.0238896 0)
  (-0.126412 0.022562 0)
  (-0.126483 0.0231095 0)
  (-0.123516 0.0268375 0)
  (-0.115893 0.0349191 0)
  (-0.102453 0.0484609 0)
  (-0.083559 0.0672494 0)
  (-0.0604933 0.0862984 0)
  (-0.0363167 0.097188 0)
  (0.00713029 0.0796772 0)
  (0.144583 0.00345576 0)
  (-0.207807 -0.138393 0)
  (-0.0928381 -0.347178 0)
  (-0.447353 -0.138575 0)
  (-0.334075 0.0445069 0)
  (-0.292188 -0.0443001 0)
  (-0.25134 -0.0509468 0)
  (-0.24005 -0.0436732 0)
  (-0.23205 -0.0367479 0)
  (-0.222747 -0.0324236 0)
  (-0.211109 -0.0303211 0)
  (-0.197429 -0.0305671 0)
  (-0.182705 -0.0337085 0)
  (-0.168363 -0.0397394 0)
  (-0.155639 -0.047867 0)
  (-0.145144 -0.0567903 0)
  (-0.136956 -0.0659599 0)
  (-0.130902 -0.0750999 0)
  (-0.126582 -0.0838 0)
  (-0.123535 -0.0916104 0)
  (-0.12142 -0.0980546 0)
  (-0.120056 -0.102649 0)
  (-0.119413 -0.105054 0)
  (-0.1195 -0.105292 0)
  (-0.120248 -0.104086 0)
  (-0.121482 -0.10167 0)
  (-0.123039 -0.0982162 0)
  (-0.124728 -0.0938068 0)
  (-0.126298 -0.0884272 0)
  (-0.127396 -0.0819458 0)
  (-0.127567 -0.0740823 0)
  (-0.126207 -0.064632 0)
  (-0.122181 -0.0542054 0)
  (-0.113325 -0.0426275 0)
  (-0.0966772 -0.0293755 0)
  (-0.0701223 -0.0134655 0)
  (-0.035109 0.00584382 0)
  (0.0242548 0.0306864 0)
  (0.0747922 0.0314301 0)
  (0.123406 0.00964867 0)
  (0.176825 -0.0312633 0)
  (-0.17798 -0.0995557 0)
)
;

boundaryField
{
  floor
  {
    type noSlip;
  }
  ceiling
  {
    type noSlip;
  }
  sWall
  {
    type noSlip;
  }
  nWall
  {
    type noSlip;
  }
  sideWalls
  {
    type empty;
  }
  glass1
  {
    type noSlip;
  }
  glass2
  {
    type noSlip;
  }
  sun
  {
    type noSlip;
  }
  heatsource1
  {
    type noSlip;
  }
  heatsource2
  {
    type noSlip;
  }
  Table_master
  {
    type noSlip;
  }
  Table_slave
  {
    type noSlip;
  }
  inlet
  {
    type fixedValue;
    value uniform (0.277164 -0.114805 0);
  }
  outlet
  {
    type zeroGradient;
  }
} 	// ************************************************************************* //

