/*--------------------------------*- C++ -*----------------------------------*=========                 |
  \      /  F ield         | OpenFOAM: The Open Source CFD Toolbox
   \    /   O peration     | Website:  https://openfoam.org
    \  /    A nd           | Version:  6
     \/     M anipulation  |
\*---------------------------------------------------------------------------*/
FoamFile
{
    version     2.0;
    format      ascii;
    class       volScalarField;
    location    "2500";
    object      PMV;
}
// * * * * * * * * * * * * * * * * * * * * * * * * * * * * * * * * * * * * * //

dimensions      [0 0 0 0 0 0 0];

internalField   nonuniform List<scalar> 
459
(
1.654383361303363
1.4379946149638159
1.4117904187699601
1.3888222745672176
1.3733478051383325
1.3639315978786546
1.361231323151516
1.3651097540715245
1.3748536112355374
1.3915789769468463
1.4172460197411367
1.4528888785924028
1.5000649125539998
1.5372413704495578
1.5415409712785872
1.605539604493892
1.59312416563914
1.5878711079636727
1.5897813360583415
1.5926466239970385
1.595034314002535
1.5973644172380117
1.5927906019690174
1.5920568960052812
1.5932899191869978
1.594634574292339
1.5964155700744953
1.5987384809296603
1.601951475939045
1.6070329898430828
1.6161521851374048
1.6227281205053872
1.6265474529671435
1.6384820567361373
1.616507083516416
1.459013752131353
1.450883087825189
1.4295277204185766
1.417301461307036
1.409888191345661
1.4080854646258283
1.4100971302573735
1.4146703491985595
1.4230304880233169
1.4377452625637295
1.461349063180805
1.4960896855416945
1.5286417794234415
1.5295973149440703
1.5295973149440703
1.5291195479728372
1.56913599727999
1.583572989744085
1.5797523190390388
1.5811850838538184
1.5777763017648794
1.573519297205489
1.572098966656529
1.5731036289129874
1.5742036398587769
1.5749791604826253
1.5751306860990422
1.5758351392528613
1.5766896193486393
1.5782174785078602
1.580700674039639
1.588270606050071
1.603629618324074
1.6093594870587984
1.6009666883975517
1.6583753122217555
1.4619295919496944
1.486802363698927
1.4768295235945268
1.4743068387751928
1.4739580369491
1.4749339663886483
1.4757856001704797
1.471522670170294
1.4645647682581369
1.4613020524812053
1.4668768493512905
1.4850708769387404
1.5155731205944796
1.5262529130642304
1.5286417794234415
1.530075080335475
1.4795249163098965
1.520912190991747
1.5334576498933719
1.54220053215079
1.5520857040176774
1.5592549142111254
1.5628141734264553
1.5708752991261479
1.5764996443934198
1.5791096065655443
1.5802803201606455
1.5813566583158494
1.5818757887676995
1.5805933785199553
1.576470511263397
1.5785264914551047
1.5966239761000858
1.587386560090405
1.5393884413656713
1.7342814722205122
1.467987470233662
1.5146178427756036
1.524783761418954
1.5422511506500909
1.5582443391777678
1.5701727053081453
1.565632568068947
1.5393200733824544
1.5029849930910302
1.4726841646166497
1.4567394427077258
1.4595030876082045
1.4802083701842825
1.512118065954722
1.5295973149440703
1.515370308591481
1.4746227054894938
1.4737297637435356
1.5011067642673595
1.5272533317878716
1.5486989230214172
1.5671939464963767
1.581127829317738
1.5860139881189643
1.5852038265810489
1.5852539594138064
1.5863513461137435
1.5885067243773139
1.5920263855958716
1.5987449284882742
1.6102446425609986
1.6328401441684872
1.6262778047409052
1.6120073942391338
1.5674977478636098
1.4949377011902818
1.8241016252254971
1.4886740809191095
1.5416524961744063
1.5706998342960299
1.61900393638794
1.6730838234814258
1.6971814747253138
1.6510416075783474
1.5795279249706655
1.510325375285741
1.4607239529889409
1.4339324738292323
1.430488906059733
1.4473778188697624
1.4763763631167934
1.503338348623639
1.5100329872137133
1.5069689010214937
1.5157982309836209
1.5401134017322113
1.5695190505699226
1.5963077042452527
1.6192324915248775
1.6346631182048468
1.6432555495659997
1.6499380993102255
1.6513121879868005
1.65192624791392
1.6512021306683444
1.649650810864097
1.648805686322363
1.6498938548113555
1.6513292989589803
1.637060931826969
1.6108330373701663
1.5497889143082093
1.5435585049657363
1.6728466124782744
1.6589433533333868
1.4968727782902178
1.9135693249099843
1.531041368799352
1.5946528744579267
1.624656025081257
1.6933646226259311
1.721987439747894
1.7097863336124144
1.630463659664876
1.5527071015887315
1.4817793984029375
1.4285400717120258
1.4015351892271406
1.4022402521497657
1.4251037238624846
1.4626604736445936
1.5029985148281912
1.5344904729694866
1.5559521014814839
1.5801469253817952
1.6103144389078088
1.6270248607574613
1.6418235228610165
1.6537565190596957
1.662824733861782
1.6709377557161482
1.677141414230028
1.6819132100870455
1.6852533370180969
1.686684786960119
1.6857304892063465
1.6823903776636968
1.677618603609533
1.670460536167053
1.6480753166566493
1.6135031296286853
1.5500699353587677
1.548170709563851
1.5624440360757887
1.561137878060037
1.573466414365787
2.003408416041445
1.626662801725269
1.746255422696384
1.7202988523245442
1.7163391844016351
1.6899772127255337
1.6363502862936077
1.5638277901303383
1.484812136909277
1.4164309671886648
1.3724519415962901
1.3607009181175642
1.3787406094179948
1.4206880159506021
1.4775607312083663
1.5397485767000276
1.5811850838538184
1.60458461513687
1.6255926315297697
1.6442102239272962
1.6604384346780536
1.6733238212998007
1.6833447062390179
1.6914561427165742
1.6971814747253138
1.7019523364439575
1.7052918040918819
1.7067229701197864
1.7067229701197864
1.704337681924135
1.698612757055316
1.6914561427165742
1.6828675430484175
1.6714149731239074
1.6342278891487951
1.5752975665829565
1.5518983691569423
1.5394502811443034
1.5143534931954585
1.6007000791398742
2.1356710829110592
1.9459737296464488
1.9013999774398942
1.8019233834405428
1.742644271624724
1.6606943827977398
1.556141663720827
1.449478137506008
1.3620854529275082
1.3079844404363017
1.2948677689731911
1.3203826616399645
1.3766475655501225
1.4530413710344738
1.5431807768825894
1.585960851099702
1.6184312233380196
1.6451648901828675
1.6652109803958839
1.6809588683663501
1.6933646226259311
1.70290648149258
1.710539311394002
1.715786537966085
1.7200795124665933
1.7224644156395208
1.7238953290494592
1.7238953290494592
1.7224644156395208
1.7196025247288362
1.7143555041833933
1.7067229701197864
1.6981356652075466
1.6876390758692652
1.6766642226819204
1.6656882233619632
1.6420950002112495
1.6290844775800744
1.5691629599884651
1.487874497640813
2.3328434969657295
2.2008529824735006
2.0353991020493143
1.8545884889265614
1.6462994964925768
1.430810397606478
1.2605361747772368
1.1564687305254544
1.1230421295458977
1.1509120923405336
1.2258248130139806
1.3325191817386681
1.454811250853326
1.5391523203020543
1.5945567796461813
1.6394367713851048
1.6675971740214155
1.6871619325213556
1.7019523364439575
1.7129244493600788
1.721510461482546
1.7248982289175416
1.7248420445475063
1.7237558611772241
1.7221288732132238
1.7194058289123784
1.7151346565823085
1.7090514139265736
1.701869265325273
1.6922488131156654
1.6814408850084153
1.6699998399812739
1.6586834266103263
1.6461074199304362
1.6313804823533298
1.6187621156942755
1.6093777235201945
1.6025699167473442
1.589623337112771
1.5612204364232802
-2.9752126907808827
-1.8365449665709475
-1.1393640134177383
-0.39293954293310135
0.1673427928557802
0.6012114281620846
0.9523610231301524
1.2149592413760897
1.3780747553194117
1.5033178326894796
1.5778419412284799
1.629411870347215
1.6513081875909041
1.6679006027594225
1.6806799195490705
1.6898020580348483
1.6958575843681272
1.6998593391454502
1.7011694870581395
1.701368767101498
1.700179863419382
1.6980032571595187
1.695110126819725
1.6913210140021562
1.687055022521582
1.681925067517167
1.6766502437073367
1.6725441052744132
1.6684997038361902
1.666044552655576
1.6642260548490813
1.6635191265292193
1.6629020212598495
1.6649889131963744
1.6739084822266952
1.704405857526767
1.8159028835217454
1.661916074150191
-2.469789423073751
-1.0031145190376152
0.041033001385748995
0.5736212456266571
0.8993420392828972
1.1022258719705111
1.2560446005789134
1.3749661684633807
1.4667772252157671
1.5356355554744885
1.5827509993803701
1.6151454858477288
1.6387831393114067
1.6554833236760793
1.667002446992108
1.675060995973296
1.6806198825261098
1.6843110443704898
1.6863503881484472
1.6874915786079308
1.6880957148343414
1.6884651837173392
1.6880571043900747
1.6873410922426604
1.6863429807837724
1.6846771626665293
1.6835440438743579
1.6833491778525782
1.6836459804452688
1.6862705436871113
1.6931139906240684
1.7031709382851146
1.7157283463428883
1.7272708912040309
1.7416808315452417
1.8025607966687927
1.7009917696095318
1.7885264484069443
-0.8571847641928194
-0.9966450739690415
-0.8766009029755802
0.3728944196056799
0.8867459004749809
1.1028716136683216
1.2359079315738573
1.338496174368
1.4214057356784018
1.4887590876113508
1.5436256299881377
1.585574745056073
1.6162012300032331
1.6375589738781253
1.6515803871658463
1.660447308503645
1.6646715357954407
1.6669106613345006
1.6672652330186202
1.6672469991432262
1.6667083899458304
1.6668326898273331
1.66706506477868
1.6676660230573885
1.668120321087434
1.6689463570574057
1.6707359241918953
1.6726860483702508
1.6761391356615516
1.6805045152916345
1.6873442233528253
1.6980466742256324
1.7172776224064497
1.7505032695664173
1.7811136152437834
1.7858801301721485
1.7906463759811626
1.7165743415629677
1.720897409012527
1.6236587842249148
)
;

boundaryField
{
    ".*"
    {
        type            zeroGradient;
    }
}


// ************************************************************************* //
