// -*- C++ -*-
// File generated by PyFoam - sorry for the ugliness

FoamFile
{
 version 2.0;
 format ascii;
 class volScalarField;
 location "2500";
 object T;
}

dimensions [ 0 0 0 1 0 0 0 ];

internalField nonuniform List<scalar> 459
(
  302.675
  302.394
  302.379
  302.375
  302.371
  302.366
  302.361
  302.355
  302.346
  302.335
  302.325
  302.317
  302.313
  302.315
  302.324
  302.458
  302.432
  302.421
  302.425
  302.431
  302.436
  302.442
  302.447
  302.452
  302.458
  302.463
  302.468
  302.473
  302.478
  302.483
  302.488
  302.494
  302.502
  302.527
  302.86
  302.435
  302.407
  302.407
  302.409
  302.408
  302.405
  302.396
  302.379
  302.356
  302.332
  302.312
  302.301
  302.297
  302.299
  302.299
  302.298
  302.461
  302.412
  302.404
  302.407
  302.414
  302.42
  302.423
  302.426
  302.428
  302.43
  302.431
  302.433
  302.435
  302.438
  302.441
  302.446
  302.454
  302.466
  302.508
  303.054
  302.488
  302.442
  302.449
  302.461
  302.47
  302.471
  302.461
  302.433
  302.392
  302.35
  302.316
  302.296
  302.289
  302.292
  302.297
  302.3
  302.388
  302.385
  302.393
  302.406
  302.42
  302.431
  302.431
  302.431
  302.431
  302.431
  302.431
  302.432
  302.433
  302.433
  302.434
  302.438
  302.444
  302.455
  302.5
  303.251
  302.556
  302.48
  302.493
  302.519
  302.544
  302.558
  302.546
  302.5
  302.433
  302.368
  302.318
  302.289
  302.282
  302.289
  302.299
  302.309
  302.325
  302.345
  302.372
  302.4
  302.426
  302.448
  302.465
  302.478
  302.49
  302.501
  302.51
  302.518
  302.524
  302.529
  302.532
  302.534
  302.502
  302.476
  302.465
  302.502
  303.443
  302.643
  302.528
  302.536
  302.575
  302.618
  302.65
  302.63
  302.56
  302.462
  302.375
  302.313
  302.28
  302.274
  302.286
  302.306
  302.327
  302.351
  302.38
  302.412
  302.444
  302.473
  302.498
  302.519
  302.537
  302.551
  302.563
  302.573
  302.579
  302.581
  302.579
  302.575
  302.566
  302.541
  302.507
  302.481
  302.499
  302.599
  302.642
  302.649
  303.616
  302.756
  302.614
  302.602
  302.642
  302.702
  302.726
  302.678
  302.58
  302.465
  302.362
  302.292
  302.261
  302.262
  302.286
  302.32
  302.357
  302.393
  302.431
  302.468
  302.503
  302.534
  302.559
  302.578
  302.595
  302.608
  302.618
  302.625
  302.628
  302.626
  302.619
  302.609
  302.594
  302.57
  302.536
  302.504
  302.501
  302.543
  302.563
  302.604
  303.779
  302.937
  302.8
  302.775
  302.791
  302.825
  302.785
  302.681
  302.543
  302.407
  302.301
  302.242
  302.228
  302.251
  302.297
  302.353
  302.407
  302.456
  302.5
  302.539
  302.573
  302.6
  302.621
  302.638
  302.65
  302.66
  302.667
  302.67
  302.67
  302.665
  302.653
  302.638
  302.62
  302.596
  302.565
  302.534
  302.52
  302.531
  302.545
  302.579
  304.012
  303.387
  303.238
  303.158
  303.088
  302.957
  302.772
  302.569
  302.386
  302.249
  302.174
  302.159
  302.192
  302.255
  302.336
  302.417
  302.485
  302.541
  302.583
  302.616
  302.642
  302.662
  302.678
  302.689
  302.698
  302.703
  302.706
  302.706
  302.703
  302.697
  302.686
  302.67
  302.652
  302.63
  302.607
  302.584
  302.577
  302.596
  302.622
  302.78
  304.348
  304.051
  303.755
  303.442
  303.065
  302.658
  302.318
  302.083
  301.961
  301.937
  301.988
  302.087
  302.202
  302.319
  302.435
  302.529
  302.588
  302.629
  302.66
  302.683
  302.701
  302.715
  302.725
  302.731
  302.735
  302.737
  302.737
  302.735
  302.733
  302.729
  302.727
  302.728
  302.73
  302.739
  302.756
  302.785
  302.825
  302.865
  302.893
  302.964
  293.356
  295.247
  297.227
  298.701
  299.77
  300.573
  301.183
  301.641
  301.982
  302.244
  302.4
  302.508
  302.587
  302.641
  302.678
  302.704
  302.723
  302.738
  302.748
  302.756
  302.761
  302.764
  302.766
  302.767
  302.768
  302.768
  302.768
  302.77
  302.771
  302.774
  302.779
  302.789
  302.804
  302.827
  302.854
  302.879
  302.899
  302.949
  294.544
  296.994
  299.187
  300.301
  301.007
  301.502
  301.859
  302.128
  302.331
  302.48
  302.579
  302.645
  302.691
  302.722
  302.743
  302.758
  302.769
  302.777
  302.782
  302.785
  302.787
  302.789
  302.79
  302.791
  302.792
  302.792
  302.793
  302.795
  302.796
  302.798
  302.803
  302.809
  302.82
  302.835
  302.852
  302.871
  302.896
  302.923
  298.284
  298.208
  298.202
  300.522
  301.447
  301.845
  302.089
  302.274
  302.419
  302.532
  302.62
  302.684
  302.729
  302.76
  302.781
  302.796
  302.805
  302.812
  302.816
  302.819
  302.82
  302.821
  302.821
  302.821
  302.82
  302.819
  302.819
  302.818
  302.818
  302.817
  302.817
  302.817
  302.819
  302.821
  302.826
  302.836
  302.846
  302.854
  302.916
  303.019
)
;

boundaryField
{
  floor
  {
    type wallHeatTransfer;
    Tinf uniform 305.2;
    alphaWall uniform 0.24;
    value nonuniform List<scalar> 29
(
  302.598
  302.952
  302.87
  302.827
  302.831
  302.846
  302.865
  302.889
  302.915
  302.942
  302.967
  302.991
  303.015
  303.038
  303.06
  303.081
  303.104
  303.128
  303.146
  303.198
  303.198
  303.075
  303.013
  302.981
  302.598
  302.952
  302.935
  302.691
  302.556
)
;
  }
  ceiling
  {
    type wallHeatTransfer;
    Tinf uniform 303.2;
    alphaWall uniform 0.24;
    value nonuniform List<scalar> 43
(
  298.605
  298.519
  298.503
  300.675
  301.55
  301.927
  302.158
  302.335
  302.473
  302.582
  302.667
  302.731
  302.777
  302.809
  302.831
  302.847
  302.858
  302.866
  302.872
  302.875
  302.877
  302.877
  302.877
  302.876
  302.875
  302.874
  302.872
  302.87
  302.868
  302.866
  302.864
  302.862
  302.862
  302.862
  302.864
  302.871
  302.88
  302.89
  302.946
  303.037
  304.296
  304.018
  295.056
)
;
  }
  sWall
  {
    type wallHeatTransfer;
    Tinf uniform 315.2;
    alphaWall uniform 0.36;
    value uniform 299.895;
  }
  nWall
  {
    type wallHeatTransfer;
    Tinf uniform 307.2;
    alphaWall uniform 0.36;
    value nonuniform List<scalar> 6
(
  303.455
  303.392
  303.301
  303.546
  303.51
  303.607
)
;
  }
  sideWalls
  {
    type empty;
  }
  glass1
  {
    type wallHeatTransfer;
    Tinf uniform 315.2;
    alphaWall uniform 4.3;
    value nonuniform List<scalar> 9
(
  311.114
  310.427
  310.001
  309.68
  309.416
  309.177
  309.01
  309.097
  309.35
)
;
  }
  glass2
  {
    type wallHeatTransfer;
    Tinf uniform 307.2;
    alphaWall uniform 4.3;
    value nonuniform List<scalar> 2
(
  305.476
  305.612
)
;
  }
  sun
  {
    type wallHeatTransfer;
    Tinf uniform 305.2;
    alphaWall uniform 0.24;
    value nonuniform List<scalar> 14
(
  302.93
  302.659
  302.642
  302.628
  302.616
  302.604
  302.593
  302.581
  302.569
  302.558
  302.55
  302.548
  302.555
  302.57
)
;
  }
  heatsource1
  {
    type fixedGradient;
    gradient uniform 0;
  }
  heatsource2
  {
    type fixedGradient;
    gradient uniform 0;
  }
  Table_master
  {
    type zeroGradient;
  }
  Table_slave
  {
    type zeroGradient;
  }
  inlet
  {
    type fixedValue;
    value uniform 290.15;
  }
  outlet
  {
    type zeroGradient;
  }
} 	// ************************************************************************* //

