// -*- C++ -*-
// File generated by PyFoam - sorry for the ugliness

FoamFile
{
 version 2.0;
 format ascii;
 class volScalarField;
 location "1800";
 object T;
}

dimensions [ 0 0 0 1 0 0 0 ];

internalField nonuniform List<scalar> 459
(
  302.688
  302.407
  302.392
  302.388
  302.384
  302.38
  302.375
  302.369
  302.36
  302.35
  302.339
  302.331
  302.326
  302.327
  302.334
  302.465
  302.438
  302.428
  302.432
  302.437
  302.442
  302.447
  302.452
  302.457
  302.461
  302.466
  302.471
  302.475
  302.48
  302.484
  302.489
  302.494
  302.501
  302.525
  302.873
  302.448
  302.42
  302.421
  302.423
  302.422
  302.419
  302.411
  302.395
  302.372
  302.348
  302.328
  302.315
  302.31
  302.311
  302.31
  302.306
  302.467
  302.42
  302.412
  302.415
  302.421
  302.426
  302.429
  302.431
  302.432
  302.434
  302.435
  302.437
  302.438
  302.44
  302.443
  302.447
  302.454
  302.465
  302.506
  303.068
  302.501
  302.455
  302.462
  302.475
  302.483
  302.486
  302.477
  302.45
  302.41
  302.368
  302.334
  302.312
  302.304
  302.305
  302.31
  302.312
  302.396
  302.393
  302.401
  302.414
  302.427
  302.437
  302.437
  302.436
  302.436
  302.436
  302.436
  302.435
  302.435
  302.435
  302.436
  302.439
  302.444
  302.454
  302.498
  303.265
  302.569
  302.493
  302.506
  302.532
  302.557
  302.572
  302.562
  302.52
  302.454
  302.389
  302.337
  302.307
  302.297
  302.302
  302.312
  302.321
  302.337
  302.357
  302.383
  302.409
  302.434
  302.455
  302.47
  302.483
  302.495
  302.505
  302.513
  302.52
  302.526
  302.53
  302.534
  302.534
  302.502
  302.476
  302.464
  302.5
  303.456
  302.655
  302.541
  302.548
  302.586
  302.63
  302.663
  302.647
  302.582
  302.486
  302.398
  302.334
  302.298
  302.289
  302.299
  302.317
  302.338
  302.362
  302.39
  302.421
  302.452
  302.48
  302.504
  302.523
  302.54
  302.553
  302.565
  302.574
  302.579
  302.581
  302.579
  302.574
  302.565
  302.54
  302.506
  302.48
  302.497
  302.595
  302.637
  302.644
  303.629
  302.769
  302.626
  302.612
  302.651
  302.709
  302.74
  302.698
  302.605
  302.491
  302.388
  302.314
  302.279
  302.276
  302.298
  302.33
  302.365
  302.401
  302.438
  302.475
  302.509
  302.538
  302.562
  302.58
  302.596
  302.608
  302.618
  302.624
  302.627
  302.625
  302.618
  302.607
  302.592
  302.568
  302.535
  302.502
  302.499
  302.54
  302.559
  302.599
  303.791
  302.949
  302.811
  302.785
  302.801
  302.837
  302.804
  302.706
  302.571
  302.436
  302.328
  302.263
  302.244
  302.262
  302.305
  302.359
  302.412
  302.461
  302.504
  302.542
  302.575
  302.601
  302.621
  302.637
  302.649
  302.658
  302.665
  302.668
  302.667
  302.662
  302.651
  302.636
  302.617
  302.594
  302.564
  302.532
  302.518
  302.529
  302.541
  302.575
  304.024
  303.398
  303.249
  303.167
  303.1
  302.977
  302.801
  302.603
  302.419
  302.279
  302.198
  302.177
  302.203
  302.262
  302.339
  302.418
  302.486
  302.541
  302.583
  302.616
  302.641
  302.661
  302.676
  302.687
  302.694
  302.7
  302.702
  302.702
  302.699
  302.693
  302.682
  302.666
  302.648
  302.627
  302.605
  302.582
  302.575
  302.593
  302.619
  302.776
  304.359
  304.063
  303.766
  303.456
  303.1
  302.704
  302.365
  302.125
  301.994
  301.961
  302.002
  302.094
  302.204
  302.317
  302.43
  302.524
  302.585
  302.626
  302.657
  302.68
  302.698
  302.711
  302.72
  302.727
  302.731
  302.732
  302.732
  302.731
  302.728
  302.725
  302.723
  302.723
  302.726
  302.735
  302.752
  302.781
  302.821
  302.861
  302.888
  302.96
  293.383
  295.327
  297.261
  298.708
  299.763
  300.56
  301.168
  301.626
  301.967
  302.228
  302.39
  302.499
  302.579
  302.635
  302.672
  302.699
  302.718
  302.732
  302.743
  302.75
  302.755
  302.758
  302.76
  302.761
  302.762
  302.762
  302.763
  302.764
  302.766
  302.769
  302.774
  302.784
  302.8
  302.822
  302.849
  302.874
  302.894
  302.942
  294.559
  296.999
  299.177
  300.282
  300.984
  301.479
  301.838
  302.109
  302.315
  302.466
  302.567
  302.636
  302.683
  302.715
  302.737
  302.752
  302.762
  302.77
  302.775
  302.778
  302.78
  302.782
  302.783
  302.784
  302.785
  302.786
  302.787
  302.789
  302.79
  302.793
  302.797
  302.804
  302.815
  302.83
  302.847
  302.866
  302.89
  302.917
  298.261
  298.184
  298.179
  300.493
  301.421
  301.821
  302.068
  302.255
  302.402
  302.517
  302.606
  302.672
  302.719
  302.75
  302.772
  302.787
  302.797
  302.804
  302.809
  302.811
  302.813
  302.813
  302.813
  302.813
  302.813
  302.812
  302.812
  302.811
  302.811
  302.811
  302.811
  302.811
  302.813
  302.816
  302.821
  302.83
  302.84
  302.848
  302.909
  303.012
)
;

boundaryField
{
  floor
  {
    type wallHeatTransfer;
    Tinf uniform 305.2;
    alphaWall uniform 0.24;
    value nonuniform List<scalar> 29
(
  302.606
  302.959
  302.877
  302.834
  302.839
  302.853
  302.872
  302.896
  302.922
  302.947
  302.972
  302.996
  303.02
  303.042
  303.063
  303.084
  303.106
  303.13
  303.147
  303.198
  303.198
  303.073
  303.011
  302.979
  302.606
  302.959
  302.939
  302.695
  302.568
)
;
  }
  ceiling
  {
    type wallHeatTransfer;
    Tinf uniform 303.2;
    alphaWall uniform 0.24;
    value nonuniform List<scalar> 43
(
  298.584
  298.497
  298.482
  300.647
  301.526
  301.905
  302.138
  302.317
  302.457
  302.568
  302.654
  302.72
  302.767
  302.8
  302.823
  302.84
  302.851
  302.859
  302.865
  302.868
  302.87
  302.871
  302.871
  302.87
  302.869
  302.868
  302.866
  302.864
  302.862
  302.86
  302.858
  302.857
  302.856
  302.857
  302.859
  302.866
  302.875
  302.884
  302.94
  303.03
  304.307
  304.029
  295.071
)
;
  }
  sWall
  {
    type wallHeatTransfer;
    Tinf uniform 315.2;
    alphaWall uniform 0.36;
    value uniform 299.875;
  }
  nWall
  {
    type wallHeatTransfer;
    Tinf uniform 307.2;
    alphaWall uniform 0.36;
    value nonuniform List<scalar> 6
(
  303.45
  303.387
  303.297
  303.539
  303.503
  303.6
)
;
  }
  sideWalls
  {
    type empty;
  }
  glass1
  {
    type wallHeatTransfer;
    Tinf uniform 315.2;
    alphaWall uniform 4.3;
    value nonuniform List<scalar> 9
(
  311.128
  310.441
  310.013
  309.691
  309.425
  309.186
  309.017
  309.104
  309.356
)
;
  }
  glass2
  {
    type wallHeatTransfer;
    Tinf uniform 307.2;
    alphaWall uniform 4.3;
    value nonuniform List<scalar> 2
(
  305.474
  305.609
)
;
  }
  sun
  {
    type wallHeatTransfer;
    Tinf uniform 305.2;
    alphaWall uniform 0.24;
    value nonuniform List<scalar> 14
(
  302.943
  302.672
  302.655
  302.641
  302.629
  302.618
  302.606
  302.595
  302.583
  302.572
  302.564
  302.561
  302.567
  302.581
)
;
  }
  heatsource1
  {
    type fixedGradient;
    gradient uniform 0;
  }
  heatsource2
  {
    type fixedGradient;
    gradient uniform 0;
  }
  Table_master
  {
    type zeroGradient;
  }
  Table_slave
  {
    type zeroGradient;
  }
  inlet
  {
    type fixedValue;
    value uniform 290.15;
  }
  outlet
  {
    type zeroGradient;
  }
} 	// ************************************************************************* //

