/*--------------------------------*- C++ -*----------------------------------*\
  =========                 |
  \\      /  F ield         | OpenFOAM: The Open Source CFD Toolbox
   \\    /   O peration     | Website:  https://openfoam.org
    \\  /    A nd           | Version:  6
     \\/     M anipulation  |
\*---------------------------------------------------------------------------*/
FoamFile
{
    version     2.0;
    format      ascii;
    class       volScalarField;
    location    "300";
    object      epsilon;
}
// * * * * * * * * * * * * * * * * * * * * * * * * * * * * * * * * * * * * * //

dimensions      [0 2 -3 0 0 0 0];

internalField   nonuniform List<scalar> 
459
(
0.000832571
0.00113239
0.00125467
0.00148234
0.001744
0.00204507
0.00229233
0.00242303
0.00239012
0.00211288
0.00165709
0.00127787
0.000915978
0.000651179
0.000431705
8.83674e-05
0.000140562
0.000226075
0.000294811
0.000307826
0.00028872
0.000240625
0.000194822
0.000158684
0.000130973
0.000109595
9.29051e-05
7.96382e-05
6.894e-05
6.00412e-05
5.22519e-05
4.48966e-05
3.80838e-05
2.82646e-05
0.0018558
0.00239998
0.00104721
0.00106609
0.00121231
0.00144511
0.0016639
0.00177633
0.00174478
0.00154166
0.0012333
0.00096338
0.000742424
0.000583396
0.000446151
0.000685154
0.000390168
8.14032e-05
0.000119026
0.000195633
0.000227385
0.000230975
0.000223699
0.000233716
0.000192289
0.000152099
0.00012014
9.56995e-05
7.71686e-05
6.29981e-05
5.20501e-05
4.3602e-05
3.8284e-05
3.58585e-05
5.17055e-05
4.21469e-05
0.0031444
0.00517929
0.00125087
0.00109556
0.00130237
0.00162455
0.00186654
0.00194994
0.00188802
0.00166985
0.00137501
0.00108639
0.000844082
0.000651851
0.000500959
0.000477908
0.000601635
0.000146131
0.00020995
0.000243321
0.00025742
0.000253341
0.00025741
0.000584888
0.000388245
0.000265348
0.000187787
0.000137525
0.000103959
8.09058e-05
6.51156e-05
5.4998e-05
4.14327e-05
3.50243e-05
7.24738e-05
5.34636e-05
0.00481711
0.0101413
0.00189309
0.00128128
0.00157567
0.0020195
0.00222382
0.00224071
0.00212549
0.00188391
0.00155342
0.00121102
0.000924482
0.000709021
0.00055022
0.000472213
0.000491841
0.000820239
0.000573526
0.000439623
0.000376631
0.000341397
0.000312477
0.000310743
0.000840184
0.000624818
0.000485581
0.000388953
0.000315347
0.000254972
0.000203024
0.000156963
0.000114401
6.14147e-05
3.97773e-05
0.000103544
6.32951e-05
0.00702826
0.0175595
0.00356195
0.00183203
0.00233497
0.00277013
0.00280007
0.00270577
0.00251831
0.00220304
0.00177213
0.00132719
0.000963855
0.000710509
0.000547272
0.000465288
0.000475181
0.000568239
0.000531966
0.000491361
0.000459434
0.000422169
0.000375522
0.000330787
0.000326525
0.000302245
0.000275549
0.000247348
0.000216286
0.000183276
0.000150033
0.000118446
8.92701e-05
5.9296e-05
4.12478e-05
8.07137e-05
6.01884e-05
8.89822e-05
0.000151557
0.000213842
0.00996502
0.0258903
0.00772062
0.00363677
0.00413299
0.00396324
0.00366432
0.00339422
0.00308226
0.00263294
0.00203997
0.00144215
0.000973625
0.000673548
0.000515992
0.000463524
0.000494264
0.000556529
0.000584558
0.000581777
0.00054773
0.000488712
0.000416901
0.000347424
0.000298037
0.000265901
0.000240112
0.000213417
0.000184107
0.000153518
0.00012375
9.69992e-05
7.43729e-05
5.51694e-05
4.54468e-05
6.24217e-05
6.21325e-05
7.20683e-05
0.000287429
0.000246925
0.0128547
0.0308196
0.0152312
0.00928064
0.00702849
0.00566092
0.00483593
0.00430717
0.00381509
0.00316943
0.00233573
0.00152958
0.000939605
0.000614108
0.000492312
0.000485357
0.00054289
0.000611904
0.000644826
0.00062443
0.000564274
0.000482475
0.000396273
0.000320338
0.000267417
0.000236059
0.000213255
0.000190986
0.000167729
0.000144041
0.000121513
0.000101852
8.53241e-05
7.19381e-05
6.93152e-05
8.21766e-05
0.000104845
0.000173641
0.000407683
0.000373113
0.0132694
0.0294689
0.0183481
0.0126871
0.00925766
0.00722938
0.00609133
0.00538668
0.00469574
0.00376565
0.00254945
0.00147366
0.000776337
0.000548193
0.000494756
0.000515603
0.000570462
0.000615029
0.00061286
0.000562797
0.000482389
0.000395867
0.00031934
0.000261622
0.000224833
0.000204722
0.000192786
0.000184583
0.000179625
0.000178376
0.000181161
0.000188113
0.000199881
0.000221762
0.000268114
0.000417413
0.000805287
0.00170912
0.00540753
0.00138015
0.0121103
0.0190507
0.0150509
0.0114799
0.00909855
0.00784853
0.00719023
0.00658389
0.00559568
0.00413329
0.00213477
0.00102934
0.000628508
0.000505011
0.000480093
0.000492499
0.00051088
0.000507669
0.000469787
0.000406625
0.00033586
0.000271161
0.000221
0.000187955
0.000170073
0.000162607
0.000162247
0.000168708
0.000183777
0.000210295
0.000252314
0.000316214
0.000412218
0.000554887
0.000758144
0.00102841
0.00133869
0.00161224
0.00181153
0.00106923
0.0026583
0.00523294
0.00747915
0.00817426
0.0078464
0.00614542
0.00371652
0.00204193
0.00108873
0.00065913
0.000487564
0.000424084
0.000400814
0.000388455
0.000370405
0.000336855
0.000288643
0.000235526
0.000187857
0.000151234
0.000126858
0.000113234
0.000108023
0.000109339
0.000116611
0.000130372
0.000151914
0.000183398
0.000228346
0.000292265
0.000382973
0.00050898
0.000672438
0.000855161
0.00100765
0.00106382
0.000936854
0.000558029
0.00463632
0.0112227
0.00813456
0.00530851
0.00353629
0.00230531
0.0014505
0.000898871
0.000596381
0.000445706
0.000369782
0.000325962
0.000293076
0.000261013
0.000225286
0.000185976
0.000147324
0.000114741
9.14255e-05
7.75227e-05
7.14257e-05
7.12588e-05
7.57079e-05
8.42256e-05
9.69432e-05
0.000114539
0.000138264
0.000170142
0.000213312
0.000272445
0.00035384
0.000463796
0.000602768
0.000762966
0.000877445
0.000985424
0.000783326
0.000578579
0.00283223
0.00349784
0.00381235
0.00433244
0.00285691
0.00215252
0.0017092
0.00132738
0.00101487
0.00079422
0.000652188
0.000558927
0.000491435
0.000435187
0.000381396
0.000325751
0.000268332
0.000213145
0.000165863
0.000130359
0.000107091
9.40459e-05
8.85544e-05
8.84503e-05
9.24249e-05
9.99315e-05
0.000110979
0.000125975
0.000145667
0.000171157
0.000203964
0.000246189
0.000300801
0.000371815
0.000463496
0.000611763
0.000651022
0.000598997
0.000486101
0.000381296
)
;

boundaryField
{
    floor
    {
        Cmu             0.09;
        kappa           0.41;
        E               9.8;
        type            epsilonWallFunction;
        value           nonuniform List<scalar> 
29
(
0.000431705
8.83674e-05
0.000140562
0.000226075
0.000294811
0.000307826
0.00028872
0.000240625
0.000194822
0.000158684
0.000130973
0.000109595
9.29051e-05
7.96382e-05
6.894e-05
6.00412e-05
5.22519e-05
4.48966e-05
3.80838e-05
2.82646e-05
2.82646e-05
4.21469e-05
5.34636e-05
6.32951e-05
0.000431705
8.83674e-05
8.14032e-05
0.000146131
0.000820239
)
;
    }
    ceiling
    {
        Cmu             0.09;
        kappa           0.41;
        E               9.8;
        type            epsilonWallFunction;
        value           nonuniform List<scalar> 
43
(
0.00283223
0.00349784
0.00381235
0.00433244
0.00285691
0.00215252
0.0017092
0.00132738
0.00101487
0.00079422
0.000652188
0.000558927
0.000491435
0.000435187
0.000381396
0.000325751
0.000268332
0.000213145
0.000165863
0.000130359
0.000107091
9.40459e-05
8.85544e-05
8.84503e-05
9.24249e-05
9.99315e-05
0.000110979
0.000125975
0.000145667
0.000171157
0.000203964
0.000246189
0.000300801
0.000371815
0.000463496
0.000611763
0.000651022
0.000598997
0.000486101
0.000381296
0.0121103
0.0190507
0.00463632
)
;
    }
    sWall
    {
        Cmu             0.09;
        kappa           0.41;
        E               9.8;
        type            epsilonWallFunction;
        value           uniform 0.00283223;
    }
    nWall
    {
        Cmu             0.09;
        kappa           0.41;
        E               9.8;
        type            epsilonWallFunction;
        value           nonuniform List<scalar> 6(0.000213842 0.000246925 0.000373113 0.000558029 0.000578579 0.000381296);
    }
    sideWalls
    {
        type            empty;
    }
    glass1
    {
        Cmu             0.09;
        kappa           0.41;
        E               9.8;
        type            epsilonWallFunction;
        value           nonuniform List<scalar> 9(0.000832571 0.0018558 0.0031444 0.00481711 0.00702826 0.00996502 0.0128547 0.0132694 0.0121103);
    }
    glass2
    {
        Cmu             0.09;
        kappa           0.41;
        E               9.8;
        type            epsilonWallFunction;
        value           nonuniform List<scalar> 2(0.00138015 0.00106923);
    }
    sun
    {
        Cmu             0.09;
        kappa           0.41;
        E               9.8;
        type            epsilonWallFunction;
        value           nonuniform List<scalar> 
14
(
0.000832571
0.00113239
0.00125467
0.00148234
0.001744
0.00204507
0.00229233
0.00242303
0.00239012
0.00211288
0.00165709
0.00127787
0.000915978
0.000651179
)
;
    }
    heatsource1
    {
        Cmu             0.09;
        kappa           0.41;
        E               9.8;
        type            epsilonWallFunction;
        value           nonuniform List<scalar> 3(8.89822e-05 0.000151557 0.000213842);
    }
    heatsource2
    {
        Cmu             0.09;
        kappa           0.41;
        E               9.8;
        type            epsilonWallFunction;
        value           nonuniform List<scalar> 4(0.000685154 0.000390168 0.000390168 0.000601635);
    }
    Table_master
    {
        Cmu             0.09;
        kappa           0.41;
        E               9.8;
        type            epsilonWallFunction;
        value           nonuniform List<scalar> 9(0.000584888 0.000388245 0.000265348 0.000187787 0.000137525 0.000103959 8.09058e-05 6.51156e-05 5.4998e-05);
    }
    Table_slave
    {
        Cmu             0.09;
        kappa           0.41;
        E               9.8;
        type            epsilonWallFunction;
        value           nonuniform List<scalar> 9(0.000840184 0.000624818 0.000485581 0.000388953 0.000315347 0.000254972 0.000203024 0.000156963 0.000114401);
    }
    inlet
    {
        type            turbulentMixingLengthDissipationRateInlet;
        mixingLength    0.01;
        phi             phi;
        k               k;
        value           uniform 0.000101881;
    }
    outlet
    {
        type            zeroGradient;
    }
}


// ************************************************************************* //
