/*--------------------------------*- C++ -*----------------------------------*=========                 |
  \      /  F ield         | OpenFOAM: The Open Source CFD Toolbox
   \    /   O peration     | Website:  https://openfoam.org
    \  /    A nd           | Version:  6
     \/     M anipulation  |
\*---------------------------------------------------------------------------*/
FoamFile
{
    version     2.0;
    format      ascii;
    class       volScalarField;
    location    "300";
    object      PMV;
}
// * * * * * * * * * * * * * * * * * * * * * * * * * * * * * * * * * * * * * //

dimensions      [0 0 0 0 0 0 0];

internalField   nonuniform List<scalar> 
459
(
1.1721820322790741
0.911174817721419
0.8757583601432526
0.8530350404441125
0.8474000860510932
0.8595534058157471
0.8906329837030941
0.9446713139652078
1.0236166430937002
1.0887493567916389
1.1030998198253004
1.088157283237059
1.0698834277055107
1.0850804782362329
1.1095548020453962
1.3837813506987902
1.3584504662204602
1.3412429089402154
1.3431549240906113
1.3555826315596675
1.3665941825693095
1.3492853442556445
1.343509290718014
1.3460325382189258
1.352577996261244
1.3597686393717854
1.3680641786329044
1.3771315509639865
1.387969473559586
1.4013234173145739
1.420742978037957
1.4503796829398135
1.4938167248658325
1.52853084898025
1.0852259468401488
0.9306199229835225
0.9185271759086779
0.8967463185932911
0.8914707644094204
0.9006639497028354
0.9179353047129686
0.945251606332082
0.9859496358434682
1.0437077942989252
1.0935204211802239
1.1031416949105328
1.0922259786100164
1.0740120884595312
1.0520537406212924
1.0551009572487786
1.1012913508436644
1.3777137697183628
1.3331166694052088
1.3139950184561273
1.311603046355323
1.3142847847063885
1.317986948257155
1.3228655031365362
1.3303087841151264
1.339343544778319
1.347979219750018
1.356270425262607
1.3651909089495746
1.374841290799538
1.3848622551622964
1.397100154203385
1.4156359461887813
1.446766941994834
1.4813546420903727
1.5070082813557877
1.0989195094891682
0.9290147931261766
0.9654970693220777
0.9594425129303492
0.961445181056247
0.9623870156457919
0.9447232318639239
0.9261600844340118
0.9318984323035292
0.9779831113291361
1.0404468553625394
1.088830845357135
1.1058944721379242
1.092396570559697
1.0674580986224056
1.0610817730799154
1.0389715854260488
1.2656336670191155
1.2454559493186037
1.2247767981514601
1.2387651446124086
1.269990347089436
1.2970481312859725
1.3073656529219724
1.3332565173127462
1.3557212920681967
1.3714283323288328
1.3843246313386857
1.396571294276541
1.4089685980627864
1.419149365773948
1.4238200662015708
1.434508721550662
1.4595526266877712
1.4667943648568262
1.443091518404119
1.1591092319833662
0.9307252707580205
1.0076292308205315
1.0417539371567837
1.0689615544281237
1.0423607402776562
0.9595664179042664
0.8966326037626103
0.8856703913039706
0.9308412054190498
1.00413471575969
1.0762528680250758
1.1194820715548357
1.118923887884742
1.0889473495442286
1.0511795236025938
1.001497027223666
0.9843260606641073
1.042992193756565
1.0985096568333743
1.1565370891610973
1.2219913881644393
1.2878082337166181
1.344603122121942
1.3841076756572166
1.4010135582003789
1.4170146479412213
1.437121483216109
1.4602999394826912
1.4841893844572336
1.5115795812273227
1.5439012691810199
1.5899419355916289
1.5495395425562701
1.5095270806941743
1.464564718572449
1.4050084198891954
1.2411397209920336
0.9501114666514181
1.0502882694825135
1.1414319830420208
1.2097585405004607
1.0922729881849238
0.9447196057220659
0.863565840977497
0.850766031061408
0.90089187737547
0.9903700459312939
1.0845389877880869
1.152618905239735
1.1693705901144869
1.144529525437235
1.1071102291132955
1.074419119393767
1.0833648261643454
1.1155087416920553
1.1693289393029052
1.2401458836527173
1.3171323059063367
1.39127963196458
1.4561795905186588
1.5083281308187257
1.539771884832984
1.565892765151128
1.5883896245941813
1.6077456656759739
1.6232977316863533
1.6355482389115228
1.6416498157660637
1.6387873051505908
1.6063405484269009
1.5422386513449293
1.466472393320124
1.4450448781220326
1.6790648549199918
1.7090045303147692
1.5370224832522705
1.3310984572110793
0.9954603899179134
1.122464686801395
1.2398856033344012
1.2365292732482693
1.053974669693111
0.9097695222421708
0.8257295267049971
0.8210049666005224
0.8885873592607251
1.0038953070930707
1.1275848512659634
1.2257273954611831
1.2614032137895401
1.2534354579981146
1.2215483819905046
1.2022758140166818
1.2197809714056382
1.2633894617711896
1.3272875937225344
1.4019943246001816
1.4787150614958195
1.5504944077566938
1.5920229985253571
1.6254279695383402
1.6507139489398333
1.6702708336752694
1.684578466162953
1.6945926262408924
1.6998377421504296
1.6998377421504296
1.6945926262408924
1.682193997625062
1.651190988035866
1.581537227690248
1.4913732003132238
1.4724246356107842
1.5410382227245611
1.5642943185615519
1.589942605794963
1.4291043806755692
1.1029501498910095
1.3254681893244695
1.277948041804439
1.1408849494641888
0.9754928044317898
0.8327256881384051
0.7675274974678831
0.7959569127185082
0.9039572045834375
1.0627733507424113
1.2278269835839506
1.323556031386336
1.3474568999819903
1.3474568999819903
1.3469789066619045
1.3608402999439115
1.398118217021848
1.4516330127678427
1.508951797189135
1.5652939565534068
1.616361828005389
1.6583463250890929
1.6912546826378683
1.7155714199111582
1.733685803212628
1.7451246563347937
1.753226308231372
1.7570385970890035
1.7570385970890035
1.7517966579476683
1.7413118636469855
1.7236756511005833
1.6926852434092405
1.638952045973435
1.549395055379089
1.5099449018612159
1.5153228676716093
1.5028943482759962
1.597857954118625
1.5693200052296776
1.4672556679075714
1.425474174393686
1.2482208440900633
1.0308761974565386
0.8186862615096316
0.6913535987156484
0.690068014142796
0.7976415008492486
0.9788945116497574
1.2089646880427307
1.3680096438820801
1.4363446712306607
1.4554548883654812
1.4592766784544375
1.4688307742923068
1.4941464238523268
1.5390355891328225
1.5944093723572266
1.6454663829319205
1.6912546826378683
1.7284425232444969
1.7575151217091878
1.778003226169371
1.7927706744731429
1.8013441173281395
1.8061067517743759
1.8080117269157396
1.8065829997865668
1.801820393360771
1.7927706744731429
1.7803852478234377
1.7627567230047783
1.7346390951684914
1.7003145572086564
1.6674090730127575
1.6395520137281498
1.6336972851364353
1.5809168831066358
1.4993018847147757
1.7844808932727667
1.6805158123906174
1.5353380126495841
1.0783773310082125
0.6428718675124677
0.44025716402668974
0.46198559194884425
0.6522417862519492
0.9177842641528011
1.2198707374514006
1.4181880749415194
1.5204130226214025
1.539799428232527
1.5495374726882216
1.56525712914844
1.592478988185742
1.6322699017489533
1.6790264208235504
1.7221608950540703
1.7547388756604665
1.77675536899623
1.7913391548767783
1.8007467683150717
1.806020232700429
1.8081899847746847
1.8082023609237474
1.805092630798566
1.7990992109422383
1.7887745408669622
1.7751741581736318
1.75934570084628
1.7405317877970126
1.7198339785257346
1.6972650756146384
1.6757058584124858
1.6609295070296883
1.6559403571546478
1.6571293730457983
1.6485707567755783
1.6289453046363822
3.0
-2.5014996117036725
-1.3033949874445931
-0.2081204341229685
0.5988873094984629
1.1121882648960708
1.3900024834212417
1.4691820459216558
1.5300750327843669
1.570190289664587
1.5962637552334364
1.617753607962954
1.6418080655033618
1.6716627773668356
1.7058787345652344
1.7413899108310595
1.7723707859135511
1.7953742603009537
1.8107605459334382
1.8187454472380367
1.8222171329595338
1.8213179866623592
1.8179375437004432
1.8118353045197417
1.8042870814258367
1.7946807156567854
1.7844236729371798
1.773932352541383
1.7636035659706348
1.7537512327232934
1.7454034460941414
1.7385948332326424
1.7349706868678103
1.7381541268489111
1.755199778809245
1.8033131354959002
1.9100790454509358
1.7866197484421458
-2.218547149051585
-0.39742858532877284
0.534582010851335
0.9606715052530296
1.2357548604671411
1.4131088531136982
1.5171181633546207
1.58277620373668
1.627163749107819
1.6592415729037178
1.6855379641528627
1.7104477400678053
1.7350651019221963
1.760929363748791
1.7873605157324817
1.8110639354551437
1.8304032800018912
1.8430183240418563
1.8502361312351436
1.8519183362518867
1.8508247889118723
1.8470648987035805
1.8421175414435325
1.835893006020041
1.8292957273748287
1.821780289582494
1.814863661144947
1.8077215560176405
1.8017591844115275
1.7977173898153165
1.7978927829341143
1.802867703182915
1.8101416637026135
1.8186818814666308
1.8338852872368794
1.886692658253135
1.837491867116149
1.8165837806405298
0.6883097450163982
-0.35973185004311575
-0.24465687275961823
0.9277045332585795
1.3569170845672427
1.5089162948509078
1.5905641771735843
1.6494422619064117
1.6940012038330172
1.7296061783837224
1.7578240202819693
1.7820225921469202
1.8028369989608968
1.822171503645788
1.8398478542231498
1.8566120678357434
1.872004927755655
1.8849232281457162
1.8947364159178006
1.901853452492772
1.9057245469083355
1.9068111833083292
1.9055386735583317
1.9022985354552142
1.8974862644142767
1.8910646056305471
1.883610649766438
1.8754035981562196
1.8669312621697887
1.8594317850810433
1.8546058837697397
1.8546665007020111
1.864098818319399
1.8889060918634926
1.8941619266905263
1.8946376076363023
1.860741247112733
1.8372483181784878
1.8118093066725942
1.825400636326197
)
;

boundaryField
{
    ".*"
    {
        type            zeroGradient;
    }
}


// ************************************************************************* //
