/*--------------------------------*- C++ -*----------------------------------*\
  =========                 |
  \\      /  F ield         | OpenFOAM: The Open Source CFD Toolbox
   \\    /   O peration     | Website:  https://openfoam.org
    \\  /    A nd           | Version:  6
     \\/     M anipulation  |
\*---------------------------------------------------------------------------*/
FoamFile
{
    version     2.0;
    format      ascii;
    class       surfaceScalarField;
    location    "2400";
    object      phi;
}
// * * * * * * * * * * * * * * * * * * * * * * * * * * * * * * * * * * * * * //

dimensions      [1 0 -1 0 0 0 0];

internalField   nonuniform List<scalar> 
852
(
-0.0030409
0.00310068
-0.00412305
0.00108214
-0.00492646
0.000803412
-0.00553919
0.000612732
-0.00592953
0.000390338
-0.00607373
0.000144202
-0.00595083
-0.000122901
-0.00555054
-0.000400288
-0.00489928
-0.00065126
-0.00406255
-0.000836731
-0.00313116
-0.000931391
-0.00220137
-0.000929791
-0.00135839
-0.000842977
-0.000641721
-0.00071667
-0.000639661
-0.000806368
0.000810051
-0.000464431
-0.000341937
0.000212103
-0.000676534
0.000749831
-0.000537728
0.0011112
-0.000361374
0.00133839
-0.000227182
0.00146195
-0.000123558
0.00152223
-6.02813e-05
0.00155569
-3.34625e-05
0.00157595
-2.02607e-05
0.00158709
-1.11425e-05
0.00159054
-3.44728e-06
0.00158445
6.09136e-06
0.0015601
2.43509e-05
0.00149396
6.6134e-05
0.00134667
0.000147289
0.0011053
0.000241379
0.000807595
0.000297701
0.000812575
-0.00216451
0.0054258
-0.00321029
0.00212793
-0.00403178
0.00162491
-0.00463313
0.00121408
-0.00501616
0.000773366
-0.00516572
0.000293766
-0.00505828
-0.000230343
-0.00469006
-0.000768502
-0.0040997
-0.00124163
-0.00335911
-0.00157732
-0.00255494
-0.00173556
-0.00176742
-0.00171731
-0.00106809
-0.00154231
-0.000533185
-0.00125158
-0.000304742
-0.000868104
5.2921e-05
-0.000357715
5.28695e-05
0.000378299
0.000442352
0.000818536
-0.000782173
0.00109014
-0.000948136
0.00132489
-0.000772483
0.00150511
-0.00054159
0.00161423
-0.000336298
0.00163195
-0.000141283
0.00163629
-6.46233e-05
0.00164158
-3.87468e-05
0.00164598
-2.4668e-05
0.00164886
-1.40171e-05
0.00165023
-4.81749e-06
0.00164922
7.10218e-06
0.00164202
3.1549e-05
0.00159801
0.000110141
0.00141065
0.000334654
0.00109034
0.000561684
0.000693775
0.000694268
0.001519
-0.00151039
0.00718155
-0.00240864
0.00302618
-0.00313208
0.00234835
-0.00364173
0.00172372
-0.00396879
0.00110043
-0.00409224
0.000417209
-0.00396844
-0.000354138
-0.00359716
-0.00113978
-0.00304073
-0.00179806
-0.00238002
-0.00223804
-0.00169467
-0.00242091
-0.00104221
-0.00236977
-0.00046982
-0.00211469
-1.34141e-05
-0.00170798
0.000288847
-0.00117037
0.000442793
-0.00051166
0.000495662
0.0016131
-0.00115946
0.00184475
-0.00101382
0.00180341
-0.0009068
0.00179529
-0.00076436
0.0018203
-0.000566598
0.00184522
-0.000361224
0.00170409
0.00163962
0.00160103
0.00157652
0.00156265
0.00155799
0.00156525
0.00159695
0.00170724
0.00139948
0.000642415
0.0010319
0.000929263
0.000584077
0.00114209
0.00212217
-0.00104989
0.00854899
-0.001758
0.00373429
-0.00222888
0.00281923
-0.00255251
0.00204735
-0.00274941
0.00129734
-0.00277797
0.000445767
-0.00257355
-0.000558564
-0.00216799
-0.00154533
-0.00165409
-0.00231196
-0.00110796
-0.00278416
-0.000587055
-0.00294182
-0.000116099
-0.00284073
0.000291264
-0.00252205
0.000633823
-0.00205054
0.000947452
-0.00148399
0.00131976
-0.000883963
0.00218413
-0.00036871
0.00263944
-0.000445104
0.00221061
-0.000730631
0.00206603
-0.000869235
0.00194137
-0.000782135
0.00183492
-0.000657919
0.00177649
-0.000508166
0.00174766
-0.000332395
0.00189076
-0.000143252
0.00198124
-9.06285e-05
0.00205247
-7.1387e-05
0.00210415
-5.18331e-05
0.0021201
-1.61055e-05
0.00207807
4.18763e-05
0.00195325
0.000124668
0.00171304
0.000240057
0.00130063
0.000412254
0.0011489
0.000794151
0.000823513
0.00125465
0.000331776
0.00163383
0.00247892
-0.000732021
0.00965988
-0.00126593
0.0042682
-0.00134901
0.00290231
-0.00138421
0.00208255
-0.00136455
0.00127768
-0.00118076
0.00026197
-0.000811792
-0.000927529
-0.000373903
-0.00198322
4.53528e-05
-0.00273122
0.000401164
-0.00313997
0.000683113
-0.00322377
0.000896805
-0.00305442
0.00106479
-0.00269004
0.00121209
-0.00219784
0.00137203
-0.00164393
0.00159156
-0.00110349
0.00191109
-0.000688244
0.00203093
-0.000564941
0.00193087
-0.000630577
0.00173938
-0.000677742
0.00157737
-0.000620123
0.00144504
-0.000525593
0.00135506
-0.000418182
0.00132246
-0.000299804
0.00137578
-0.000196571
0.00143679
-0.000151635
0.00150065
-0.000135242
0.00156225
-0.000113436
0.00160862
-6.24771e-05
0.00161837
3.2123e-05
0.00157132
0.000171722
0.00145679
0.000354588
0.00127726
0.000591785
0.00111738
0.000954029
0.000941305
0.00143072
0.000540829
0.00203431
0.000415599
0.00260415
-0.00111567
0.00153107
-0.00157904
0.000463159
-0.00152503
-0.000635025
0.0107255
-0.000993397
0.00462657
-0.000533679
0.00244259
-9.78045e-05
0.00164668
0.000294549
0.000885326
0.000807001
-0.000250482
0.001332
-0.00145253
0.00171514
-0.00236636
0.00193484
-0.00295092
0.00201244
-0.00321758
0.0019893
-0.00320063
0.00189502
-0.00296013
0.00176729
-0.00256232
0.00164315
-0.0020737
0.00155377
-0.00155455
0.00152072
-0.00107044
0.0015336
-0.000701126
0.00148909
-0.000520431
0.00134621
-0.000487691
0.00114945
-0.000480989
0.00097429
-0.000444962
0.000839895
-0.000391198
0.000754087
-0.000332374
0.00072678
-0.000272496
0.000757009
-0.0002268
0.000817142
-0.000211767
0.000893141
-0.000211242
0.000978603
-0.000198898
0.00106637
-0.000150245
0.00114007
-4.15798e-05
0.00118122
0.000130575
0.00119104
0.000344771
0.00117778
0.000605039
0.00119153
0.000940278
0.00128569
0.00133657
0.00146774
0.00185226
0.00195993
0.00211196
0.00224094
0.00125006
0.00185095
0.000853148
0.000390614
-0.000661714
0.0118651
-0.000513541
0.0044784
0.000720214
0.00120884
0.00164567
0.00072122
0.00250433
2.66727e-05
0.00329641
-0.00104257
0.00378037
-0.00193649
0.00395574
-0.00254172
0.00386891
-0.00286409
0.00358446
-0.00293312
0.00317391
-0.00279008
0.00270086
-0.00248709
0.00222302
-0.00208448
0.00178755
-0.00163822
0.0014235
-0.0011905
0.00114422
-0.00079116
0.000941296
-0.000498203
0.000766113
-0.000345247
0.00058082
-0.000302399
0.000396651
-0.00029682
0.000241332
-0.000289642
0.00012769
-0.000277556
5.99526e-05
-0.000264637
4.14178e-05
-0.000253961
6.72194e-05
-0.000252601
0.000121179
-0.000265727
0.000192208
-0.000282272
0.000278611
-0.0002853
0.000384562
-0.000256196
0.000514599
-0.000171617
0.000648402
-3.2274e-06
0.000776505
0.000216668
0.000916912
0.000464632
0.00110915
0.000748043
0.00140641
0.00103931
0.00188312
0.00137554
0.00262246
0.00137262
0.00321959
0.000652924
0.00328348
0.000789263
0.00374342
0.00277155
0.00962875
0.00355317
0.00369678
0.0041804
0.0005816
0.00519153
-0.000289909
0.00611757
-0.000899369
0.00657521
-0.00150021
0.00658964
-0.00195091
0.00623351
-0.0021856
0.00559676
-0.00222734
0.0047795
-0.00211586
0.00388058
-0.00189116
0.00298255
-0.00158906
0.00215206
-0.00125399
0.00143585
-0.000922009
0.000853138
-0.000607787
0.000412712
-0.000350734
0.000105781
-0.000191272
-0.000110785
-0.000128681
-0.000282428
-0.000130756
-0.000425918
-0.000153331
-0.000540564
-0.000174996
-0.000624408
-0.000193712
-0.000677638
-0.000211407
-0.000701352
-0.000230247
-0.000700813
-0.00025314
-0.0006862
-0.000280339
-0.000663506
-0.000304966
-0.000631354
-0.000317452
-0.000579974
-0.000307576
-0.000488445
-0.000263146
-0.000325907
-0.000165766
-0.000122632
1.33928e-05
0.00010525
0.00023675
0.000387599
0.000465694
0.000731227
0.000695677
0.00118782
0.000918953
0.00167138
0.000889062
0.00180782
0.000516479
0.000974495
0.00162259
0.00501106
0.0102216
0.0139145
0.0129799
0.00151616
0.0123579
0.000332076
0.0116003
-0.000141696
0.0105552
-0.000455105
0.0092419
-0.000637655
0.00777329
-0.000716983
0.00625095
-0.000705005
0.00476247
-0.00062738
0.00338676
-0.000515456
0.00217344
-0.00037574
0.0011559
-0.000236446
0.000342701
-0.000108813
-0.000258038
-7.04804e-06
-0.000646489
3.77177e-05
-0.000874821
3.7059e-05
-0.00101944
1.59368e-05
-0.0011322
-1.7991e-05
-0.00123019
-5.53446e-05
-0.00131553
-8.96524e-05
-0.00138853
-0.000120711
-0.00145109
-0.000148854
-0.0015065
-0.000174834
-0.00156061
-0.000199033
-0.00162159
-0.000219361
-0.00169696
-0.000229589
-0.00179414
-0.000220275
-0.00192238
-0.000179342
-0.00209377
-9.17488e-05
-0.00231519
5.56523e-05
-0.00257272
0.000270923
-0.00290899
0.000573018
-0.00342446
0.000981166
-0.00421656
0.00148778
-0.00534062
0.00204301
-0.00690463
0.00245307
-0.00875869
0.00237055
-0.00813137
0.000995272
-0.00279465
0.00437451
0.00337799
0.00335712
0.00134947
0.00364653
-0.000431106
0.00358216
-0.000390743
0.00312186
-0.000177348
0.00243359
-2.87131e-05
0.00163006
9.85215e-05
0.00080525
0.000197431
3.48076e-05
0.000254987
-0.000610746
0.000269814
-0.00109321
0.000246021
-0.00142015
0.00021812
-0.00161202
0.000184822
-0.00171792
0.000143625
-0.00178428
0.00010342
-0.00183634
6.79909e-05
-0.00189048
3.61557e-05
-0.00195307
7.24074e-06
-0.00202219
-2.05341e-05
-0.00209452
-4.83759e-05
-0.00217156
-7.18181e-05
-0.00225615
-9.02474e-05
-0.00235178
-0.000103396
-0.00246138
-0.000109761
-0.00258527
-0.0001057
-0.00272011
-8.54358e-05
-0.00285731
-4.21437e-05
-0.00298206
3.30025e-05
-0.00308641
0.000160008
-0.00317481
0.000359323
-0.00325783
0.000656035
-0.00334741
0.00107074
-0.00344734
0.00158772
-0.0034988
0.00209447
-0.00341085
0.00236512
-0.00298571
0.00194541
-0.00165779
-0.000332652
-0.00436764
-0.000794675
0.004257
-0.000352241
0.000907032
-0.00103084
0.000247494
-0.00155107
0.00012949
-0.00190413
0.000175707
-0.00216612
0.000233279
-0.00235167
0.000284071
-0.00247988
0.000325645
-0.00256266
0.000337764
-0.00260595
0.000313106
-0.00262216
0.000262231
-0.00261082
0.000206782
-0.00258038
0.000154379
-0.0025455
0.000108738
-0.00251575
7.36699e-05
-0.00249588
4.81292e-05
-0.00248847
2.87453e-05
-0.00249393
1.26974e-05
-0.00251046
-4.00619e-06
-0.00253803
-2.08046e-05
-0.00257577
-3.40736e-05
-0.00262284
-4.31783e-05
-0.00267819
-4.80456e-05
-0.00274003
-4.79289e-05
-0.00280475
-4.09778e-05
-0.00286614
-2.40395e-05
-0.00291542
7.13093e-06
-0.00293746
5.50416e-05
-0.00290915
0.000131703
-0.00280351
0.000253676
-0.00258516
0.000437688
-0.00222545
0.000711033
-0.00172693
0.00108919
-0.00107312
0.00144065
-4.33029e-05
0.00133531
0.00127619
0.000625915
0.00159456
-0.000651017
-0.00267976
-0.00789226
-0.0111512
-0.00683897
-0.00590384
-0.00563718
-0.00549229
-0.00530352
-0.00505883
-0.00476448
-0.0044293
-0.00408241
-0.00376025
-0.00348882
-0.00327257
-0.00310843
-0.00298963
-0.00290564
-0.00284696
-0.00280748
-0.00278391
-0.002777
-0.00278688
-0.0028101
-0.00284252
-0.00287996
-0.00291745
-0.0029482
-0.00296225
-0.0029454
-0.00288094
-0.00274015
-0.00247774
-0.0020317
-0.00131271
-0.000216009
0.00123152
0.00257339
0.00320584
0.00256162
)
;

boundaryField
{
    floor
    {
        type            calculated;
        value           nonuniform List<scalar> 
29
(
0
0
0
0
0
0
0
0
0
0
0
0
0
0
0
0
0
0
0
0
-4.98054e-06
-1.26443e-05
-1.91001e-05
-2.49701e-05
-2.05964e-06
-3.68368e-06
-1.06004e-05
-1.12888e-05
-1.02116e-05
)
;
    }
    ceiling
    {
        type            calculated;
        value           nonuniform List<scalar> 
43
(
-5.92244e-05
-5.70007e-05
-5.52165e-05
-2.80998e-05
-1.9165e-05
-1.54011e-05
-1.30621e-05
-1.14165e-05
-1.0277e-05
-9.53182e-06
-9.13233e-06
-9.04711e-06
-9.19928e-06
-9.46796e-06
-9.76635e-06
-1.00551e-05
-1.03202e-05
-1.05522e-05
-1.07385e-05
-1.08654e-05
-1.09245e-05
-1.09167e-05
-1.08578e-05
-1.07545e-05
-1.06121e-05
-1.04351e-05
-1.02265e-05
-9.98798e-06
-9.71907e-06
-9.41769e-06
-9.08999e-06
-8.73624e-06
-8.35648e-06
-7.94884e-06
-7.50893e-06
-6.87469e-06
-6.56591e-06
-6.53456e-06
-6.79313e-06
-6.43731e-06
6.33012e-06
3.90142e-06
-8.43369e-05
)
;
    }
    sWall
    {
        type            calculated;
        value           uniform -0.00027932;
    }
    nWall
    {
        type            calculated;
        value           nonuniform List<scalar> 6(-5.42105e-05 -6.46976e-05 -6.93336e-05 -8.47999e-05 -9.33313e-05 -0.000111702);
    }
    sideWalls
    {
        type            empty;
        value           nonuniform 0();
    }
    glass1
    {
        type            calculated;
        value           nonuniform List<scalar> 9(-5.97796e-05 -0.000160606 -0.000245373 -0.00031755 -0.000378868 -0.000430624 -0.000477884 -0.000535167 -0.000599185);
    }
    glass2
    {
        type            calculated;
        value           nonuniform List<scalar> 2(-0.000293144 -0.000325658);
    }
    sun
    {
        type            calculated;
        value           uniform 0;
    }
    heatsource1
    {
        type            calculated;
        value           nonuniform List<scalar> 3(2.05026e-07 2.04923e-07 2.04942e-07);
    }
    heatsource2
    {
        type            calculated;
        value           nonuniform List<scalar> 4(5.14183e-08 5.15256e-08 0 0);
    }
    Table_master
    {
        type            calculated;
        value           nonuniform List<scalar> 9(-1.53771e-07 -1.53864e-07 -1.53897e-07 -1.53919e-07 -1.53934e-07 -1.53945e-07 -1.53949e-07 -1.53942e-07 -1.53908e-07);
    }
    Table_slave
    {
        type            calculated;
        value           nonuniform List<scalar> 9(1.53629e-07 1.5365e-07 1.53628e-07 1.5361e-07 1.53605e-07 1.53609e-07 1.53629e-07 1.53678e-07 1.53769e-07);
    }
    inlet
    {
        type            calculated;
        value           uniform -0.00623633;
    }
    outlet
    {
        type            calculated;
        value           nonuniform List<scalar> 2(0.0082308 0.00331593);
    }
}


// ************************************************************************* //
