/*--------------------------------*- C++ -*----------------------------------*\
  =========                 |
  \\      /  F ield         | OpenFOAM: The Open Source CFD Toolbox
   \\    /   O peration     | Website:  https://openfoam.org
    \\  /    A nd           | Version:  6
     \\/     M anipulation  |
\*---------------------------------------------------------------------------*/
FoamFile
{
    version     2.0;
    format      ascii;
    class       volScalarField;
    location    "170";
    object      alphat;
}
// * * * * * * * * * * * * * * * * * * * * * * * * * * * * * * * * * * * * * //

dimensions      [1 -1 -1 0 0 0 0];

internalField   nonuniform List<scalar> 
459
(
0.00159488
0.0017834
0.00195573
0.00185047
0.00155647
0.00132749
0.0011055
0.000984722
0.000887904
0.000810254
0.000758578
0.000724633
0.000699398
0.000678484
0.000659475
0.000482058
0.000556832
0.000575241
0.000505373
0.00041948
0.000325155
0.000234906
0.000214619
0.0002235
0.000236562
0.00023504
0.000219718
0.000210773
0.000253178
0.000300229
0.000390027
0.000458768
0.000451931
0.000404187
0.00164618
0.00310298
0.00452811
0.00620181
0.00660202
0.00611199
0.00504815
0.00368312
0.0030804
0.00314574
0.00318509
0.00295051
0.00262429
0.00220605
0.00160977
0.000713923
0.000547567
0.000658732
0.00128509
0.00149709
0.00155671
0.00129375
0.000857008
0.000572454
0.000482311
0.00054641
0.000627053
0.000563242
0.000389125
0.000266094
0.000323124
0.000501538
0.00116104
0.00138718
0.0015167
0.000558676
0.00237256
0.00307045
0.00344356
0.00394136
0.00481111
0.005544
0.00587318
0.00570171
0.00441728
0.00382695
0.00406247
0.00383726
0.00333189
0.00273757
0.00205737
0.00138478
0.000783851
0.000939684
0.00260052
0.00237675
0.00204853
0.00166689
0.00127714
0.000446702
0.000365145
0.000327458
0.000303345
0.000283904
0.00026344
0.000248183
0.00043092
0.000645161
0.00144461
0.00150517
0.00121753
0.000649757
0.00380606
0.00434384
0.00425867
0.0041381
0.0043272
0.00488327
0.00554832
0.00601917
0.00560112
0.00467969
0.0048863
0.0048887
0.00434889
0.00362947
0.00279012
0.00195728
0.001339
0.00107032
0.00251182
0.00270255
0.00245641
0.0020779
0.00167591
0.001249
0.000881289
0.000902128
0.000929051
0.000958598
0.000989265
0.00102053
0.00105184
0.00106832
0.00107482
0.00178576
0.00237156
0.00276667
0.00107964
0.00412998
0.00523663
0.00491734
0.00449942
0.00439496
0.00474667
0.00542963
0.00613662
0.00614934
0.00558659
0.00581951
0.00625177
0.00613981
0.00587692
0.00555897
0.00518935
0.00483001
0.00457735
0.00455685
0.00446567
0.00435083
0.00421228
0.00409688
0.00401195
0.0039765
0.00403466
0.00411006
0.00418766
0.00425639
0.00431314
0.00436884
0.00442173
0.00447671
0.0045327
0.00441237
0.00412556
0.00332159
0.00141468
0.00126096
0.00121956
0.00437469
0.00578348
0.00522521
0.00453426
0.00435732
0.00467634
0.00540685
0.00624242
0.00641236
0.00600471
0.00639964
0.00708771
0.00724258
0.00723647
0.00718982
0.0070786
0.00688611
0.00663228
0.00635033
0.0060552
0.0057948
0.00559478
0.00544617
0.00532956
0.00523782
0.00517674
0.00514288
0.0051248
0.00510826
0.00509031
0.00508555
0.00511223
0.00517978
0.00526978
0.0053572
0.00538268
0.00502523
0.00428613
0.00283043
0.0014697
0.00463269
0.00566301
0.00446895
0.00433272
0.00432238
0.00470468
0.00547083
0.00630616
0.00648854
0.00617449
0.00659144
0.00739006
0.00770128
0.00782218
0.007889
0.0078768
0.00775778
0.00753629
0.00724601
0.00693593
0.00665526
0.00642971
0.00625114
0.00609599
0.00595014
0.00582271
0.00572519
0.00564668
0.0055583
0.00544135
0.00530806
0.00518924
0.00510773
0.00505372
0.00497816
0.00479367
0.00442383
0.00395651
0.00320381
0.00148992
0.00497158
0.00549589
0.0044589
0.00405842
0.00452675
0.0049613
0.00563346
0.00634133
0.00650169
0.006252
0.00657373
0.00728842
0.00769858
0.00788967
0.0080131
0.00805628
0.00799561
0.00782805
0.00757894
0.00729484
0.00702772
0.0068149
0.00666665
0.00656966
0.00649951
0.00644139
0.00639812
0.00636555
0.00630595
0.00616645
0.00592311
0.00556446
0.00510726
0.00459729
0.00408682
0.00362788
0.00322262
0.00284878
0.00247889
0.00165015
0.00552766
0.00646284
0.00832223
0.00416041
0.00481822
0.00560164
0.00601348
0.00650243
0.00662323
0.00635508
0.00637063
0.00678895
0.00720449
0.00743308
0.00757039
0.00763433
0.00761682
0.00751141
0.00732845
0.00709772
0.00686059
0.00665783
0.0065218
0.00647657
0.00653491
0.00667981
0.00686681
0.0070624
0.00724959
0.00740387
0.00747828
0.00745996
0.00736539
0.00720422
0.00693346
0.00638428
0.00554071
0.00483049
0.00449638
0.00182551
0.0135763
0.0069802
0.00442926
0.00642649
0.00666937
0.00690748
0.00687039
0.00642701
0.00618037
0.00620503
0.00633719
0.00642351
0.00647612
0.00650065
0.00649113
0.00643711
0.00633395
0.00618913
0.00602184
0.00585802
0.00572646
0.00565935
0.00569476
0.00586858
0.00618706
0.00660714
0.00704784
0.00739876
0.00763988
0.0077806
0.00783644
0.00782586
0.00776554
0.00765535
0.00736831
0.00653379
0.00595704
0.00181422
0.00563256
0.00379005
0.00598822
0.00660378
0.00672303
0.00674278
0.00632531
0.00575607
0.00533753
0.00508505
0.00492969
0.00478694
0.00467451
0.00459366
0.0045351
0.00448523
0.00443131
0.00436563
0.0042876
0.00420347
0.00412505
0.00406938
0.00406069
0.00413289
0.00432588
0.00466725
0.00513305
0.00564948
0.00611662
0.00647167
0.00669801
0.00680104
0.00678677
0.00663784
0.00616755
0.00533357
0.00483336
0.00160772
0.00269999
0.00326705
0.00395648
0.00192008
0.00189329
0.00206312
0.00208818
0.00201659
0.00188455
0.0017582
0.00165033
0.00155842
0.00147878
0.0014116
0.00135353
0.00130255
0.00125725
0.0012165
0.00117932
0.00114483
0.00111234
0.00108144
0.001052
0.00102423
0.000998809
0.000977022
0.000961087
0.000954312
0.000962159
0.000992235
0.00104628
0.00111999
0.00120231
0.00127822
0.00133261
0.00135154
0.00134277
0.00131792
0.00131731
0.00124138
)
;

boundaryField
{
    floor
    {
        type            compressible::alphatWallFunction;
        Prt             0.85;
        value           nonuniform List<scalar> 
29
(
9.31973e-05
6.64505e-05
7.78521e-05
8.06325e-05
7.00455e-05
5.67743e-05
4.17823e-05
2.68316e-05
2.33553e-05
2.48634e-05
2.70794e-05
2.68295e-05
2.42316e-05
2.27001e-05
2.98639e-05
3.76483e-05
5.20696e-05
6.28257e-05
6.17677e-05
5.43129e-05
5.43122e-05
7.81049e-05
9.17135e-05
0.000153403
9.31962e-05
6.64497e-05
9.30893e-05
0.000133744
0.00015213
)
;
    }
    ceiling
    {
        type            compressible::alphatWallFunction;
        Prt             0.85;
        value           nonuniform List<scalar> 
43
(
0.000366953
0.000437768
0.000522185
0.000266854
0.000263352
0.000285506
0.000288755
0.000279447
0.000262192
0.000245559
0.000231255
0.000218987
0.000208291
0.000199217
0.000191337
0.000184385
0.000178182
0.000172581
0.00016745
0.000162675
0.000158161
0.000153852
0.000149733
0.000145837
0.000142256
0.000139179
0.000136921
0.000135957
0.00013706
0.0001413
0.000148889
0.000159175
0.000170573
0.00018101
0.000188451
0.000191039
0.000189848
0.000186464
0.000186379
0.000175981
0.000709476
0.00081832
0.000721741
)
;
    }
    sWall
    {
        type            compressible::alphatWallFunction;
        Prt             0.85;
        value           uniform 0.000365845;
    }
    nWall
    {
        type            compressible::alphatWallFunction;
        Prt             0.85;
        value           nonuniform List<scalar> 6(0.000172579 0.000206624 0.000209396 0.000252539 0.000225182 0.000175634);
    }
    sideWalls
    {
        type            empty;
    }
    glass1
    {
        type            compressible::alphatWallFunction;
        Prt             0.85;
        value           nonuniform List<scalar> 9(0.000218838 0.000225766 0.000319616 0.000496904 0.000535839 0.000565041 0.000595661 0.000635653 0.000700791);
    }
    glass2
    {
        type            compressible::alphatWallFunction;
        Prt             0.85;
        value           nonuniform List<scalar> 2(0.000229266 0.000252407);
    }
    sun
    {
        type            compressible::alphatWallFunction;
        Prt             0.85;
        value           nonuniform List<scalar> 
14
(
0.000223755
0.000248763
0.000271377
0.000257562
0.000218553
0.000187614
0.000157037
0.00014011
0.000126368
0.00011522
0.000107732
0.000102781
9.90822e-05
9.60048e-05
)
;
    }
    heatsource1
    {
        type            compressible::alphatWallFunction;
        Prt             0.85;
        value           nonuniform List<scalar> 3(0.000199566 0.000178634 0.000172978);
    }
    heatsource2
    {
        type            compressible::alphatWallFunction;
        Prt             0.85;
        value           nonuniform List<scalar> 4(0.000101368 7.65976e-05 7.65967e-05 0.000111559);
    }
    Table_master
    {
        type            compressible::alphatWallFunction;
        Prt             0.85;
        value           nonuniform List<scalar> 9(6.11016e-05 4.8281e-05 4.22344e-05 3.83169e-05 3.51281e-05 3.17393e-05 2.9185e-05 5.86099e-05 9.12047e-05);
    }
    Table_slave
    {
        type            compressible::alphatWallFunction;
        Prt             0.85;
        value           nonuniform List<scalar> 9(0.000125585 0.00012856 0.000132393 0.000136587 0.000140924 0.00014533 0.000149725 0.000152027 0.000152928);
    }
    inlet
    {
        type            fixedValue;
        value           uniform 1.94e-05;
    }
    outlet
    {
        type            zeroGradient;
    }
}


// ************************************************************************* //
