/*--------------------------------*- C++ -*----------------------------------*\
  =========                 |
  \\      /  F ield         | OpenFOAM: The Open Source CFD Toolbox
   \\    /   O peration     | Website:  https://openfoam.org
    \\  /    A nd           | Version:  6
     \\/     M anipulation  |
\*---------------------------------------------------------------------------*/
FoamFile
{
    version     2.0;
    format      ascii;
    class       volScalarField;
    location    "170";
    object      epsilon;
}
// * * * * * * * * * * * * * * * * * * * * * * * * * * * * * * * * * * * * * //

dimensions      [0 2 -3 0 0 0 0];

internalField   nonuniform List<scalar> 
459
(
0.000921187
0.00128539
0.00169409
0.00142996
0.000848239
0.000525417
0.000303163
0.00021417
0.000156964
0.000119257
9.78563e-05
8.52975e-05
7.66934e-05
7.00189e-05
6.4301e-05
2.50737e-05
3.8651e-05
4.26223e-05
2.8917e-05
1.65519e-05
7.71454e-06
2.89704e-06
2.20241e-06
2.48516e-06
2.94758e-06
2.89299e-06
2.36393e-06
2.08641e-06
3.61097e-06
6.0265e-06
1.32176e-05
2.15264e-05
2.05786e-05
1.47221e-05
0.00101705
0.00245728
0.00401556
0.00544856
0.00502481
0.00344323
0.00149138
0.0005411
0.000225643
0.000106835
7.23119e-05
6.63317e-05
6.84861e-05
7.0631e-05
6.95786e-05
8.15758e-05
3.67836e-05
6.40287e-05
8.09609e-05
5.8758e-05
3.76895e-05
2.54897e-05
1.62768e-05
8.5157e-06
5.531e-06
5.81746e-06
6.60613e-06
5.50704e-06
3.34202e-06
2.41273e-06
7.27302e-06
1.88175e-05
3.94582e-05
5.41774e-05
6.97128e-05
3.8909e-05
0.00305966
0.00454772
0.00428763
0.0039992
0.00394498
0.00364348
0.00304009
0.00223784
0.000673319
0.000192397
9.09117e-05
7.45192e-05
7.81775e-05
8.61963e-05
9.35779e-05
0.000100858
0.000107981
0.000185956
0.000159399
8.79698e-05
7.3074e-05
6.93632e-05
6.81511e-05
1.9901e-05
1.08704e-05
7.8406e-06
6.23269e-06
5.10916e-06
4.08174e-06
3.41086e-06
1.78014e-05
5.9977e-05
7.76196e-05
8.7393e-05
8.93786e-05
6.11987e-05
0.0126597
0.0102891
0.00750912
0.005503
0.00425629
0.00356781
0.00306992
0.00253229
0.00152571
0.000394914
0.000132977
9.03057e-05
8.84472e-05
9.64236e-05
0.000110066
0.000134788
0.000184194
0.000275008
0.000155086
8.45904e-05
7.20163e-05
7.47093e-05
8.6157e-05
0.000108728
0.000153635
0.000164798
0.000180011
0.000197761
0.000217384
0.00023869
0.000261349
0.000273793
0.000278726
0.000187447
0.000167176
0.000241437
0.000281638
0.0161524
0.0135509
0.00830164
0.00533389
0.00387965
0.00318528
0.00279255
0.00242389
0.00163794
0.000536148
0.000180466
0.000108894
9.89242e-05
0.000100373
0.000102019
0.000101866
0.000100677
9.57497e-05
7.59213e-05
6.68025e-05
6.56491e-05
6.95498e-05
7.68515e-05
8.71585e-05
0.000100316
0.000115236
0.000134286
0.000157945
0.000186257
0.000219275
0.000257809
0.000299377
0.000345962
0.000382008
0.000410671
0.000410072
0.000408121
0.000634072
0.000449031
0.00040694
0.0191741
0.017143
0.00821461
0.0043233
0.00304143
0.00258215
0.00236903
0.00215709
0.00149413
0.000544998
0.000199842
0.000124839
0.000117326
0.000123332
0.000128158
0.000127311
0.00011982
0.000107782
9.47586e-05
8.55104e-05
8.14097e-05
8.23547e-05
8.7447e-05
9.63917e-05
0.000109711
0.000128779
0.000155275
0.000190053
0.000233591
0.000286966
0.00035315
0.000437271
0.000546619
0.00068776
0.000870565
0.0010856
0.00118554
0.00107538
0.000626699
0.00071212
0.0227423
0.0217466
0.00789161
0.00281548
0.00223028
0.00205403
0.00197272
0.00183878
0.00128033
0.000507845
0.000201418
0.000136969
0.00013794
0.000153072
0.000165905
0.000170813
0.000165986
0.00015323
0.000137006
0.000122134
0.000111852
0.000107247
0.000108147
0.000114713
0.000128303
0.000151513
0.000186787
0.000235082
0.000295897
0.000369281
0.000458868
0.000572656
0.000719784
0.000904524
0.0011166
0.00131131
0.00140918
0.0013889
0.00093017
0.000742973
0.0280691
0.0304908
0.0177361
0.00264172
0.00177683
0.00172222
0.00167121
0.00154785
0.00108191
0.000466701
0.00020992
0.000156956
0.000165692
0.000189295
0.000209891
0.000221356
0.000221314
0.000210508
0.000192777
0.000173319
0.00015656
0.000144945
0.000139394
0.000140873
0.000151881
0.00017691
0.000220709
0.000285559
0.000368422
0.000461079
0.000554758
0.000642872
0.000720971
0.000790164
0.000857876
0.000938344
0.00103908
0.00115574
0.00126467
0.00101212
0.038527
0.0614096
0.0745996
0.0110121
0.00194728
0.00165142
0.00150383
0.00134654
0.000950399
0.00046276
0.000265758
0.000215016
0.000218453
0.000239063
0.000259023
0.000271619
0.000274102
0.000266119
0.000249881
0.000229412
0.000208897
0.000191355
0.000178502
0.000171689
0.00017353
0.000189284
0.000225143
0.000288232
0.00038421
0.000514451
0.000675897
0.000863351
0.0010691
0.00128208
0.00148239
0.00162006
0.00170269
0.00190558
0.00250561
0.00137192
0.179679
0.0519109
0.00413252
0.0018989
0.00150907
0.00129814
0.000907948
0.000561022
0.000399741
0.000337876
0.000320093
0.000319132
0.000322492
0.000323866
0.000320222
0.000310476
0.000295126
0.000275948
0.000255333
0.000235535
0.000218304
0.000205056
0.000197535
0.000198548
0.000212129
0.000243397
0.000297719
0.000379488
0.000491827
0.000630164
0.000782322
0.000932718
0.00106791
0.00118013
0.00120588
0.00105506
0.00151207
0.00134498
0.0405698
0.00572556
0.00254705
0.00180946
0.00154508
0.00131437
0.000963368
0.000713882
0.000576156
0.000502598
0.000461651
0.000435247
0.000414369
0.00039505
0.000375541
0.000355148
0.000333796
0.000311872
0.000290091
0.000269298
0.000250317
0.000233933
0.000221075
0.000213141
0.000212336
0.000221885
0.000245736
0.000288827
0.000354606
0.000440822
0.000537488
0.000628449
0.000695008
0.000718426
0.000680729
0.000633861
0.00109058
0.000936219
0.00447383
0.00792076
0.0140673
0.00161021
0.00154414
0.00199805
0.00207057
0.0018622
0.00151849
0.00123244
0.00101889
0.000857787
0.000732764
0.000637259
0.000561731
0.00050055
0.000450055
0.000407641
0.000371338
0.000339647
0.000311495
0.000286195
0.000263395
0.00024303
0.000225319
0.000210832
0.000200616
0.000196331
0.000201119
0.000220468
0.000258377
0.000316822
0.000391853
0.000470806
0.000533494
0.00055657
0.00054575
0.00051596
0.00051515
0.000431171
)
;

boundaryField
{
    floor
    {
        Cmu             0.09;
        kappa           0.41;
        E               9.8;
        type            epsilonWallFunction;
        value           nonuniform List<scalar> 
29
(
6.4301e-05
2.50737e-05
3.8651e-05
4.26223e-05
2.8917e-05
1.65519e-05
7.71454e-06
2.89704e-06
2.20241e-06
2.48516e-06
2.94758e-06
2.89299e-06
2.36393e-06
2.08641e-06
3.61097e-06
6.0265e-06
1.32176e-05
2.15264e-05
2.05786e-05
1.47221e-05
1.47221e-05
3.8909e-05
6.11987e-05
0.000281638
6.4301e-05
2.50737e-05
6.40287e-05
0.000185956
0.000275008
)
;
    }
    ceiling
    {
        Cmu             0.09;
        kappa           0.41;
        E               9.8;
        type            epsilonWallFunction;
        value           nonuniform List<scalar> 
43
(
0.00447383
0.00792076
0.0140673
0.00161021
0.00154414
0.00199805
0.00207057
0.0018622
0.00151849
0.00123244
0.00101889
0.000857787
0.000732764
0.000637259
0.000561731
0.00050055
0.000450055
0.000407641
0.000371338
0.000339647
0.000311495
0.000286195
0.000263395
0.00024303
0.000225319
0.000210832
0.000200616
0.000196331
0.000201119
0.000220468
0.000258377
0.000316822
0.000391853
0.000470806
0.000533494
0.00055657
0.00054575
0.00051596
0.00051515
0.000431171
0.038527
0.0614096
0.0405698
)
;
    }
    sWall
    {
        Cmu             0.09;
        kappa           0.41;
        E               9.8;
        type            epsilonWallFunction;
        value           uniform 0.00447383;
    }
    nWall
    {
        Cmu             0.09;
        kappa           0.41;
        E               9.8;
        type            epsilonWallFunction;
        value           nonuniform List<scalar> 6(0.00040694 0.00071212 0.000742973 0.00134498 0.000936219 0.000431171);
    }
    sideWalls
    {
        type            empty;
    }
    glass1
    {
        Cmu             0.09;
        kappa           0.41;
        E               9.8;
        type            epsilonWallFunction;
        value           nonuniform List<scalar> 9(0.000921187 0.00101705 0.00305966 0.0126597 0.0161524 0.0191741 0.0227423 0.0280691 0.038527);
    }
    glass2
    {
        Cmu             0.09;
        kappa           0.41;
        E               9.8;
        type            epsilonWallFunction;
        value           nonuniform List<scalar> 2(0.00101212 0.00137192);
    }
    sun
    {
        Cmu             0.09;
        kappa           0.41;
        E               9.8;
        type            epsilonWallFunction;
        value           nonuniform List<scalar> 
14
(
0.000921187
0.00128539
0.00169409
0.00142996
0.000848239
0.000525417
0.000303163
0.00021417
0.000156964
0.000119257
9.78563e-05
8.52975e-05
7.66934e-05
7.00189e-05
)
;
    }
    heatsource1
    {
        Cmu             0.09;
        kappa           0.41;
        E               9.8;
        type            epsilonWallFunction;
        value           nonuniform List<scalar> 3(0.000634072 0.000449031 0.00040694);
    }
    heatsource2
    {
        Cmu             0.09;
        kappa           0.41;
        E               9.8;
        type            epsilonWallFunction;
        value           nonuniform List<scalar> 4(8.15758e-05 3.67836e-05 3.67836e-05 0.000107981);
    }
    Table_master
    {
        Cmu             0.09;
        kappa           0.41;
        E               9.8;
        type            epsilonWallFunction;
        value           nonuniform List<scalar> 9(1.9901e-05 1.08704e-05 7.8406e-06 6.23269e-06 5.10916e-06 4.08174e-06 3.41086e-06 1.78014e-05 5.9977e-05);
    }
    Table_slave
    {
        Cmu             0.09;
        kappa           0.41;
        E               9.8;
        type            epsilonWallFunction;
        value           nonuniform List<scalar> 9(0.000153635 0.000164798 0.000180011 0.000197761 0.000217384 0.00023869 0.000261349 0.000273793 0.000278726);
    }
    inlet
    {
        type            turbulentMixingLengthDissipationRateInlet;
        mixingLength    0.01;
        phi             phi;
        k               k;
        value           uniform 3.77336e-06;
    }
    outlet
    {
        type            zeroGradient;
    }
}


// ************************************************************************* //
