/*--------------------------------*- C++ -*----------------------------------*\
  =========                 |
  \\      /  F ield         | OpenFOAM: The Open Source CFD Toolbox
   \\    /   O peration     | Website:  https://openfoam.org
    \\  /    A nd           | Version:  6
     \\/     M anipulation  |
\*---------------------------------------------------------------------------*/
FoamFile
{
    version     2.0;
    format      ascii;
    class       volScalarField;
    location    "170";
    object      nut;
}
// * * * * * * * * * * * * * * * * * * * * * * * * * * * * * * * * * * * * * //

dimensions      [0 2 -1 0 0 0 0];

internalField   nonuniform List<scalar> 
459
(
0.00137554
0.00153711
0.00168528
0.00159275
0.00133828
0.0011408
0.000949731
0.000845869
0.000762637
0.000695894
0.000651485
0.000622317
0.000600634
0.00058267
0.000566355
0.00041375
0.000477915
0.00049372
0.000433747
0.000360003
0.000278963
0.000201431
0.000183992
0.000191592
0.000202783
0.000201473
0.000188336
0.000180669
0.000217028
0.000257378
0.000334396
0.000393349
0.000387478
0.000346551
0.00142173
0.00268253
0.00391426
0.00535789
0.00569763
0.00526711
0.00434308
0.00316598
0.00264681
0.00270234
0.00273588
0.00253427
0.002254
0.00189472
0.00138252
0.000613093
0.000470133
0.000565472
0.00110311
0.00128506
0.00133623
0.00111046
0.000735457
0.000491079
0.000413647
0.000468555
0.000537635
0.00048288
0.000333592
0.000228117
0.000277033
0.000430093
0.000995902
0.00118971
0.00130063
0.000479048
0.00205224
0.00265597
0.00297859
0.00340883
0.00415909
0.00478819
0.00506622
0.00491166
0.00379807
0.00328843
0.00349015
0.00329647
0.00286222
0.00235158
0.00176718
0.00118936
0.000673173
0.000806847
0.00223286
0.00204077
0.00175903
0.00143133
0.00109657
0.000383283
0.000313249
0.000280889
0.000260182
0.000243485
0.000225913
0.000212805
0.000369553
0.000553496
0.00123953
0.00129109
0.00104424
0.000557252
0.00329496
0.00375798
0.00368375
0.00357927
0.00374212
0.00422076
0.0047911
0.00519101
0.00482194
0.00402265
0.00419874
0.00420048
0.00373656
0.00311832
0.00239704
0.00168141
0.00115018
0.000919339
0.00215739
0.00232133
0.00211006
0.00178503
0.00143975
0.00107303
0.000757144
0.000775053
0.000798189
0.000823581
0.000849934
0.000876804
0.000903699
0.000917836
0.000923384
0.0015339
0.00203646
0.00237514
0.000926803
0.00357375
0.00452643
0.00425006
0.00388968
0.00379992
0.00410311
0.00469013
0.00529446
0.00529614
0.00480362
0.00500165
0.00537274
0.00527648
0.0050505
0.00477712
0.00445929
0.0041503
0.00393303
0.00391532
0.00383701
0.00373846
0.00361949
0.00352038
0.00344742
0.00341695
0.00346693
0.00353172
0.00359842
0.00365751
0.00370629
0.00375415
0.00379957
0.0038467
0.00389456
0.0037907
0.00354371
0.00285272
0.00121495
0.00108289
0.00104768
0.003784
0.00499542
0.00451355
0.00391838
0.00376676
0.00404218
0.00467062
0.00538594
0.00552268
0.00516403
0.00550135
0.0060924
0.00622561
0.00622044
0.0061803
0.00608453
0.00591884
0.00570045
0.00545797
0.00520425
0.00498045
0.00480852
0.00468076
0.00458049
0.00450157
0.00444902
0.00441989
0.00440434
0.00439016
0.00437479
0.00437076
0.00439373
0.00445181
0.00452916
0.0046043
0.00462621
0.00431892
0.00368302
0.00243145
0.00126253
0.00400551
0.00488964
0.00385988
0.00374426
0.0037363
0.00406621
0.00472519
0.00543995
0.00558788
0.00531084
0.00566733
0.0063537
0.00662149
0.00672572
0.00678329
0.00677275
0.00667023
0.00647955
0.00622977
0.00596301
0.00572159
0.00552755
0.00537391
0.00524036
0.00511481
0.00500509
0.00492113
0.00485358
0.00477765
0.00467725
0.00456284
0.00446088
0.00439099
0.00434475
0.00427997
0.00412151
0.00380358
0.0034016
0.00275351
0.00128012
0.00429658
0.0047448
0.00385107
0.00350719
0.00391232
0.00428694
0.00486438
0.00546915
0.00559912
0.00537854
0.00565343
0.00626786
0.00662091
0.00678569
0.00689214
0.00692937
0.00687711
0.0067328
0.00651832
0.00627374
0.00604379
0.00586054
0.00573281
0.00564912
0.00558847
0.00553815
0.00550062
0.00547238
0.00542108
0.00530129
0.00509236
0.00478434
0.00439155
0.00395333
0.00351458
0.00312008
0.00277168
0.00245025
0.00213217
0.00141937
0.00477495
0.00557774
0.00718219
0.00359431
0.00416298
0.0048386
0.00519105
0.00560729
0.0057043
0.00546886
0.00548074
0.00584034
0.00619802
0.00639507
0.00651354
0.00656873
0.00655369
0.00646289
0.0063053
0.00610654
0.00590228
0.00572757
0.00561025
0.005571
0.00562077
0.0057449
0.0059052
0.00607287
0.00623341
0.00636586
0.00642983
0.00641423
0.0063332
0.00619497
0.00596254
0.00549067
0.00476556
0.00415504
0.00386805
0.00157088
0.0117003
0.0060261
0.00382519
0.00554911
0.00575593
0.0059564
0.00591837
0.00553348
0.00531993
0.00534074
0.00545444
0.00552883
0.00557425
0.00559545
0.00558728
0.00554073
0.00545181
0.00532699
0.00518278
0.00504155
0.00492806
0.00486998
0.00490008
0.00504919
0.00532265
0.00568342
0.00606185
0.0063631
0.00657
0.00669073
0.00673865
0.0067296
0.00667787
0.00658328
0.00633657
0.00561903
0.00512321
0.00156046
0.00485795
0.00327128
0.00516934
0.00570054
0.00580155
0.00581452
0.00545109
0.00495883
0.00459744
0.00437956
0.00424555
0.00412248
0.00402558
0.00395588
0.00390538
0.00386234
0.0038158
0.00375912
0.00369177
0.00361917
0.00355146
0.00350331
0.00349558
0.00355744
0.00372319
0.00401655
0.00441689
0.00486066
0.00526194
0.00556681
0.00576105
0.00584935
0.00583688
0.0057087
0.00530422
0.00458701
0.00415692
0.0013829
0.00232962
0.00281825
0.00341296
0.00165706
0.00163403
0.0017806
0.00180188
0.00173926
0.00162488
0.00151566
0.0014225
0.00134317
0.00127445
0.00121648
0.00116638
0.00112239
0.0010833
0.00104814
0.00101605
0.000986288
0.000958256
0.000931588
0.000906176
0.00088221
0.000860258
0.000841437
0.000827651
0.000821748
0.000828425
0.000854226
0.000900639
0.000963966
0.00103468
0.00109987
0.00114656
0.00116276
0.00115514
0.0011337
0.00113312
0.00106788
)
;

boundaryField
{
    floor
    {
        type            nutkWallFunction;
        Cmu             0.09;
        kappa           0.41;
        E               9.8;
        value           nonuniform List<scalar> 
29
(
6.81347e-05
4.85754e-05
5.68985e-05
5.89287e-05
5.11988e-05
4.15063e-05
3.05498e-05
1.96215e-05
1.70794e-05
1.818e-05
1.9798e-05
1.96151e-05
1.77178e-05
1.65992e-05
2.18313e-05
2.75151e-05
3.80421e-05
4.58909e-05
4.51183e-05
3.96802e-05
3.96801e-05
5.70405e-05
6.69768e-05
0.00011206
6.81347e-05
4.85753e-05
6.80324e-05
9.77304e-05
0.000111187
)
;
    }
    ceiling
    {
        type            nutkWallFunction;
        Cmu             0.09;
        kappa           0.41;
        E               9.8;
        value           nonuniform List<scalar> 
43
(
0.000269095
0.000320962
0.000382859
0.000195723
0.000193165
0.000209416
0.000211762
0.000204843
0.000192139
0.000179918
0.000169418
0.000160418
0.000152574
0.000145919
0.00014014
0.000135042
0.000130493
0.000126385
0.000122623
0.00011912
0.00011581
0.00011265
0.000109628
0.00010677
0.000104143
0.000101884
0.000100225
9.95118e-05
0.000100311
0.000103404
0.000108945
0.000116458
0.000124783
0.000132404
0.000137833
0.000139717
0.000138838
0.000136356
0.000136287
0.000128692
0.000520888
0.00060028
0.000529085
)
;
    }
    sWall
    {
        type            nutkWallFunction;
        Cmu             0.09;
        kappa           0.41;
        E               9.8;
        value           uniform 0.000269158;
    }
    nWall
    {
        type            nutkWallFunction;
        Cmu             0.09;
        kappa           0.41;
        E               9.8;
        value           nonuniform List<scalar> 6(0.000126317 0.000151187 0.000153235 0.000184936 0.000164934 0.0001287);
    }
    sideWalls
    {
        type            empty;
    }
    glass1
    {
        type            nutkWallFunction;
        Cmu             0.09;
        kappa           0.41;
        E               9.8;
        value           nonuniform List<scalar> 9(0.000164284 0.000169532 0.000239519 0.000371241 0.000399994 0.000421524 0.000444077 0.000473521 0.000521491);
    }
    glass2
    {
        type            nutkWallFunction;
        Cmu             0.09;
        kappa           0.41;
        E               9.8;
        value           nonuniform List<scalar> 2(0.00016912 0.000186171);
    }
    sun
    {
        type            nutkWallFunction;
        Cmu             0.09;
        kappa           0.41;
        E               9.8;
        value           nonuniform List<scalar> 
14
(
0.000164102
0.000182325
0.000198854
0.000188535
0.00015984
0.000137159
0.000114788
0.000102414
9.237e-05
8.42232e-05
7.87517e-05
7.51342e-05
7.24321e-05
7.01842e-05
)
;
    }
    heatsource1
    {
        type            nutkWallFunction;
        Cmu             0.09;
        kappa           0.41;
        E               9.8;
        value           nonuniform List<scalar> 3(0.00014568 0.000130396 0.000126308);
    }
    heatsource2
    {
        type            nutkWallFunction;
        Cmu             0.09;
        kappa           0.41;
        E               9.8;
        value           nonuniform List<scalar> 4(7.39928e-05 5.59001e-05 5.59001e-05 8.14363e-05);
    }
    Table_master
    {
        type            nutkWallFunction;
        Cmu             0.09;
        kappa           0.41;
        E               9.8;
        value           nonuniform List<scalar> 9(4.45634e-05 3.52066e-05 3.07942e-05 2.79353e-05 2.56082e-05 2.31355e-05 2.12713e-05 4.27243e-05 6.65101e-05);
    }
    Table_slave
    {
        type            nutkWallFunction;
        Cmu             0.09;
        kappa           0.41;
        E               9.8;
        value           nonuniform List<scalar> 9(9.17087e-05 9.38821e-05 9.66821e-05 9.97451e-05 0.000102913 0.000106132 0.00010934 0.00011102 0.000111673);
    }
    inlet
    {
        type            calculated;
        value           uniform 3.3541e-05;
    }
    outlet
    {
        type            calculated;
        value           nonuniform List<scalar> 2(0.00232962 0.00281825);
    }
}


// ************************************************************************* //
