/*--------------------------------*- C++ -*----------------------------------*\
  =========                 |
  \\      /  F ield         | OpenFOAM: The Open Source CFD Toolbox
   \\    /   O peration     | Website:  https://openfoam.org
    \\  /    A nd           | Version:  6
     \\/     M anipulation  |
\*---------------------------------------------------------------------------*/
FoamFile
{
    version     2.0;
    format      ascii;
    class       surfaceScalarField;
    location    "170";
    object      phi;
}
// * * * * * * * * * * * * * * * * * * * * * * * * * * * * * * * * * * * * * //

dimensions      [1 0 -1 0 0 0 0];

internalField   nonuniform List<scalar> 
852
(
-0.00369708
0.0037488
-0.00370674
9.71744e-06
-0.0028992
-0.00080748
-0.00256896
-0.000330147
-0.00288911
0.000320254
-0.00328438
0.000395378
-0.00329732
1.30379e-05
-0.0030513
-0.00024591
-0.00258625
-0.000464948
-0.00206418
-0.00052198
-0.00159119
-0.000472885
-0.00117922
-0.000411881
-0.000807408
-0.00037172
-0.00042466
-0.000382657
-0.000421107
-0.000509014
0.00051362
-0.000366617
-0.000142326
-7.79655e-05
-0.000288583
5.69134e-05
-0.000134822
-7.60318e-05
0.000132961
-0.000450201
0.000373982
-0.000749944
0.000299633
-0.000845503
9.55482e-05
-0.000827427
-1.80443e-05
-0.000743996
-8.33865e-05
-0.000607278
-0.000136666
-0.000411009
-0.000196205
-9.44886e-05
-0.000316444
0.000319411
-0.000413795
0.000536251
-0.000216742
0.000718107
-0.000181761
0.000910002
-0.000191809
0.000855956
5.41258e-05
0.000861639
-0.000330649
0.00422712
0.00130826
-0.00162911
0.00225157
-0.00175069
0.0019915
-6.99607e-05
0.00104594
0.00126594
-0.000317979
0.00175941
-0.00164484
0.00134001
-0.00237457
0.000483932
-0.00227457
-0.000564832
-0.00200509
-0.000791368
-0.00171788
-0.000759993
-0.00141819
-0.000711481
-0.00107971
-0.0007101
-0.000705736
-0.000756545
-0.000324295
-0.00080246
0.000298038
-0.000622299
0.000298078
0.000830292
-0.000305694
0.000624754
6.32799e-05
0.000221422
0.000114816
6.80768e-05
1.85719e-05
0.000152907
4.81538e-05
0.000206299
0.000320556
0.000109232
0.000396664
4.85069e-05
0.000156268
-9.15426e-06
3.96226e-05
-6.96978e-05
-2.28313e-05
-0.000102357
-0.000103962
-9.69217e-05
-0.000201575
-4.47287e-05
-0.000368557
-7.57865e-06
-0.000450815
-2.61753e-05
-0.000198032
0.000126939
-0.000334809
0.00038612
-0.00045093
0.000405924
3.43798e-05
0.00128125
0.00597843
-0.00154412
0.00807019
-0.00372078
0.00801169
-0.00169209
0.00699007
0.000951768
0.00547541
0.00278072
0.00368551
0.00354943
0.00166692
0.00335875
-0.000299837
0.00245084
-0.00151112
0.000646575
-0.00174098
-0.000561401
-0.00176054
-0.000740342
-0.00170696
-0.000764958
-0.0015994
-0.000817566
-0.00145394
-0.000901919
-0.00129321
-0.000963098
-0.00100812
-0.000907307
-0.000709952
-0.000733477
0.000441677
-0.000924847
0.00025471
-0.000912475
0.000102498
-0.000824408
-6.94536e-05
-0.000563146
-0.000213074
0.000139349
-0.000381915
0.000536229
0.000692697
0.00073252
0.000709893
0.000606136
0.000404765
3.64127e-05
-0.000414088
-0.000611907
-0.00074955
-0.000197129
-0.00133003
0.000129634
-0.00148144
0.000185887
-0.000179895
0.00770388
-0.00901784
0.00950876
-0.00552556
0.00895347
-0.0011367
0.00782317
0.00208217
0.00637178
0.00423222
0.00465188
0.00526946
0.0028087
0.00520207
0.00106373
0.00419597
-0.000534319
0.00224479
-0.00134746
0.000251852
-0.00172129
-0.000366409
-0.00193332
-0.000552827
-0.00208992
-0.000660874
-0.00224103
-0.000750709
-0.00240689
-0.000797148
-0.00256897
-0.000745135
-0.00281704
-0.000461797
-0.00256538
-0.000237269
-0.0021669
4.32741e-05
-0.00204247
0.000130356
-0.00196439
2.44862e-05
-0.0019174
-0.000116359
-0.00188182
-0.000248573
-0.00194962
-0.000314024
-0.00167606
-0.000273623
-0.00139257
-0.000283547
-0.00107778
-0.000314853
-0.000729725
-0.000348115
-0.00035259
-0.000377195
4.16967e-05
-0.000394346
0.000418217
-0.000376578
0.000740201
-0.000322039
0.000980803
-0.000240659
0.000920197
-0.000136443
0.000947791
0.000102127
0.000804568
0.000329229
0.000642762
0.00423089
-0.0129624
0.00528978
-0.00658434
0.00517438
-0.0010212
0.00479177
0.00246488
0.00412278
0.00490132
0.00315378
0.00623858
0.00201209
0.00634391
0.000864334
0.00534389
-0.000181205
0.0032905
-0.00102348
0.00109425
-0.0015264
0.000136613
-0.00183534
-0.000243783
-0.00206338
-0.000432734
-0.00226051
-0.000553484
-0.00244107
-0.000616484
-0.00259611
-0.000589999
-0.00261634
-0.000441476
-0.00258703
-0.000266482
-0.00241904
-0.000124627
-0.00221975
-6.88444e-05
-0.00207541
-0.000119763
-0.00197716
-0.000214524
-0.00191144
-0.000314195
-0.00184327
-0.000382099
-0.001696
-0.000420798
-0.00151168
-0.000467769
-0.00130538
-0.000521062
-0.00108304
-0.000570344
-0.000854387
-0.000605747
-0.000630369
-0.000618256
-0.000408582
-0.000598253
-0.000177485
-0.000553017
8.04908e-05
-0.000498503
0.000392854
-0.000448664
0.000882161
-0.000387008
0.00146348
-0.000251879
0.00221862
-0.000112141
0.00178911
0.000429523
-0.000103899
0.00189299
-5.54208e-05
0.00123518
-0.0138539
0.00173631
-0.00708536
0.00220982
-0.00149461
0.00185295
0.00282186
0.00154498
0.00520939
0.00116403
0.00661965
0.000696522
0.00681156
0.000199376
0.0058412
-0.000282648
0.0037727
-0.000823029
0.00163475
-0.00123059
0.00054428
-0.00150798
3.37087e-05
-0.00170804
-0.000232573
-0.00187466
-0.000386759
-0.00202123
-0.000469818
-0.0021344
-0.000476718
-0.00216648
-0.0004093
-0.00212685
-0.00030601
-0.00202869
-0.000222684
-0.00190756
-0.000189876
-0.00181036
-0.000216863
-0.00174566
-0.000279124
-0.00170706
-0.000352701
-0.00167064
-0.000418419
-0.00161598
-0.000475356
-0.00154987
-0.000533786
-0.00148118
-0.00058965
-0.00141723
-0.000634175
-0.00136417
-0.000658697
-0.0013243
-0.000657999
-0.00128932
-0.000633104
-0.0012444
-0.000597789
-0.00116731
-0.000575434
-0.0010199
-0.000595893
-0.000711923
-0.000694788
-5.08147e-05
-0.000912765
0.00097456
-0.00113726
0.00199656
-0.000592169
0.00286287
0.00102692
0.00285932
-0.000513022
-0.0129409
-0.000160767
-0.00743751
-0.000121412
-0.00153386
-0.000870882
0.00357143
-0.000800042
0.00513866
-0.000578958
0.00639869
-0.000430529
0.00666328
-0.000366934
0.00577776
-0.000423044
0.00382895
-0.000639613
0.00185143
-0.000853656
0.000758424
-0.00103016
0.000210316
-0.00116956
-9.30719e-05
-0.00128548
-0.000270739
-0.001386
-0.000369193
-0.00146161
-0.000401009
-0.00149319
-0.000377616
-0.00147479
-0.000324301
-0.00142299
-0.000274378
-0.00136154
-0.000251228
-0.00131616
-0.000262135
-0.00129739
-0.000297794
-0.00130481
-0.000345169
-0.00133017
-0.000392961
-0.0013686
-0.00043683
-0.00142648
-0.000475796
-0.00151286
-0.000503164
-0.00163578
-0.000511142
-0.00179912
-0.000495234
-0.00199993
-0.000457053
-0.00222762
-0.000405262
-0.00246586
-0.000359399
-0.00269461
-0.000346506
-0.00288926
-0.00040106
-0.00301818
-0.00056567
-0.00302362
-0.000907115
-0.00266851
-0.00149215
-0.00118916
-0.00207129
0.00076998
-0.000931839
0.00368922
-0.00285263
-0.00963614
-0.00413625
-0.00615378
-0.0036843
-0.0019857
-0.00345923
0.00334648
-0.00265989
0.00433943
-0.00182131
0.00556024
-0.00113481
0.00597693
-0.000633847
0.00527694
-0.000343265
0.0035385
-0.000280926
0.00178918
-0.000323606
0.000801197
-0.000389291
0.000276095
-0.000455775
-2.64923e-05
-0.000518674
-0.000207744
-0.000579172
-0.000308599
-0.000629673
-0.00035041
-0.000658876
-0.000348314
-0.000661843
-0.000321232
-0.000646434
-0.000289682
-0.000627962
-0.000269593
-0.000622434
-0.000267555
-0.000639272
-0.000280847
-0.000681739
-0.000302593
-0.000749834
-0.000324757
-0.000846342
-0.000340216
-0.000981507
-0.000340524
-0.00116987
-0.000314693
-0.00142728
-0.000253613
-0.00176647
-0.000155921
-0.00219034
-3.3046e-05
-0.00269864
0.000103174
-0.00329853
0.000240646
-0.00398658
0.000341695
-0.00473198
0.000344503
-0.00548167
0.000184197
-0.00624068
-0.000147931
-0.00717011
-0.000562535
-0.00817565
-0.00106556
-0.00708772
-0.00201956
-0.00310266
-0.00914494
-0.0153007
-0.0100133
-0.00727293
-0.00595111
-0.000715643
-0.0039111
0.00229953
-0.0024803
0.00412957
-0.00135244
0.00484921
-0.00049638
0.004421
0.000118879
0.00292335
0.000386071
0.00152207
0.000470323
0.000717024
0.000485555
0.000260944
0.000470469
-1.13228e-05
0.000439607
-0.000176798
0.000398539
-0.000267447
0.000354645
-0.00030643
0.000317142
-0.000310722
0.000291113
-0.000295112
0.00027436
-0.000272832
0.000258754
-0.000253888
0.000234621
-0.000243318
0.000194994
-0.000241112
0.000136598
-0.000244087
5.91616e-05
-0.000247209
-3.61701e-05
-0.000244771
-0.000147315
-0.000229267
-0.000270522
-0.000191375
-0.000399529
-0.000124491
-0.000526162
-2.9166e-05
-0.000655057
9.59772e-05
-0.000798248
0.000246496
-0.000959008
0.000401538
-0.00114054
0.000523356
-0.00136326
0.000567348
-0.00167898
0.000500031
-0.00213653
0.000309721
-0.00272704
2.80778e-05
-0.00333681
-0.000455683
-0.00307897
-0.00227728
-0.00586606
-0.0081437
0.00127388
-0.00598909
-0.00287015
-0.00401272
0.000323267
-0.002407
0.00252397
-0.00104238
0.00348471
0.000137493
0.00324124
0.00099271
0.00206822
0.0013976
0.00111726
0.00157711
0.000537587
0.00164311
0.000195014
0.00164692
-1.50645e-05
0.00161367
-0.000143483
0.00155909
-0.000212793
0.00149499
-0.000242263
0.00143073
-0.000246393
0.00137192
-0.000236222
0.0013193
-0.000220131
0.00126944
-0.000203949
0.00121699
-0.000190774
0.00115712
-0.000181139
0.00108691
-0.000173775
0.00100609
-0.000166283
0.000917068
-0.000155637
0.000825693
-0.000137778
0.000741869
-0.000107434
0.000677564
-6.00673e-05
0.00064268
5.84214e-06
0.000644799
9.39849e-05
0.000687198
0.000204228
0.000767798
0.000321069
0.000875423
0.000415861
0.000991777
0.000451121
0.00110342
0.000388509
0.00122139
0.000191857
0.00140729
-0.000157709
0.00170597
-0.000754243
0.00152224
-0.00209341
-0.00427388
-0.00177989
0.0030515
-0.00316942
-0.00148054
-0.00291679
7.07368e-05
-0.00176421
0.00137149
-0.000259272
0.00197988
0.00122094
0.00176112
0.00219504
0.00109421
0.00271406
0.000598306
0.00295954
0.000292179
0.00304898
0.000105628
0.0030459
-1.19194e-05
0.0029837
-8.12292e-05
0.00289078
-0.000119815
0.00278508
-0.000136509
0.00267829
-0.000139541
0.00257701
-0.000134885
0.00248349
-0.000126553
0.00239672
-0.000117107
0.0023139
-0.000107886
0.00223202
-9.91787e-05
0.00214886
-9.05374e-05
0.00206377
-8.10972e-05
0.0019781
-6.98656e-05
0.00189623
-5.57947e-05
0.00182675
-3.78433e-05
0.00178235
-1.55436e-05
0.00177495
1.33712e-05
0.00181861
5.04501e-05
0.00192483
9.81435e-05
0.00209348
0.00015256
0.00230919
0.000200293
0.0025408
0.000219647
0.00274431
0.000185139
0.00286727
6.90434e-05
0.00286206
-0.000152366
0.00261319
-0.000505225
0.00165665
-0.00113671
-0.00253238
-0.00287877
-0.0041648
-0.00111659
-0.00260548
-0.00254344
-0.00118
0.000792631
0.0025482
0.00363779
0.00423199
0.00452038
0.00462241
0.00460702
0.00452246
0.00439947
0.00425995
0.00411759
0.00398007
0.00385109
0.00373179
0.00362196
0.00352111
0.0034292
0.00334708
0.00327657
0.00322058
0.00318307
0.00316845
0.00318342
0.00323622
0.00333748
0.00349387
0.00369861
0.0039232
0.0041137
0.00418848
0.00404223
0.00354352
0.00241362
)
;

boundaryField
{
    floor
    {
        type            calculated;
        value           nonuniform List<scalar> 
29
(
0
0
0
0
0
0
0
0
0
0
0
0
0
0
0
0
0
0
0
0
-5.61126e-06
-1.36239e-05
-2.01955e-05
-1.796e-05
-3.46199e-06
-4.53238e-06
-1.0912e-05
-1.38264e-05
-1.43116e-05
)
;
    }
    ceiling
    {
        type            calculated;
        value           nonuniform List<scalar> 
43
(
5.57286e-06
4.05866e-06
3.3653e-06
8.423e-06
8.77177e-06
8.14618e-06
7.33e-06
5.63672e-06
4.70333e-06
4.17588e-06
3.86083e-06
3.66453e-06
3.53128e-06
3.38328e-06
3.22392e-06
3.05344e-06
2.87108e-06
2.67563e-06
2.46564e-06
2.23922e-06
1.99365e-06
1.72491e-06
1.42743e-06
1.09367e-06
7.13901e-07
2.76236e-07
-2.31834e-07
-8.18558e-07
-1.48706e-06
-2.22749e-06
-2.98249e-06
-3.6856e-06
-4.2899e-06
-4.78451e-06
-5.19264e-06
-5.56271e-06
-5.93654e-06
-6.33439e-06
-6.63158e-06
-6.54894e-06
3.61102e-06
2.0821e-06
2.35971e-06
)
;
    }
    sWall
    {
        type            calculated;
        value           uniform -0.000162921;
    }
    nWall
    {
        type            calculated;
        value           nonuniform List<scalar> 6(-4.85223e-05 -5.16494e-05 -5.97045e-05 -6.97857e-05 -8.4683e-05 -0.000112042);
    }
    sideWalls
    {
        type            empty;
        value           nonuniform 0();
    }
    glass1
    {
        type            calculated;
        value           nonuniform List<scalar> 9(-5.16501e-05 -0.000147578 -0.000207104 -0.00023007 -0.000286191 -0.00034361 -0.000399935 -0.000451986 -0.000494705);
    }
    glass2
    {
        type            calculated;
        value           nonuniform List<scalar> 2(-0.000295619 -0.000315427);
    }
    sun
    {
        type            calculated;
        value           uniform 0;
    }
    heatsource1
    {
        type            calculated;
        value           nonuniform List<scalar> 3(2.04758e-07 2.05001e-07 2.0573e-07);
    }
    heatsource2
    {
        type            calculated;
        value           nonuniform List<scalar> 4(5.1413e-08 5.14862e-08 0 0);
    }
    Table_master
    {
        type            calculated;
        value           nonuniform List<scalar> 9(-1.54564e-07 -1.54587e-07 -1.54609e-07 -1.54638e-07 -1.54677e-07 -1.54746e-07 -1.54847e-07 -1.54767e-07 -1.54564e-07);
    }
    Table_slave
    {
        type            calculated;
        value           nonuniform List<scalar> 9(1.53618e-07 1.53709e-07 1.53796e-07 1.53894e-07 1.54002e-07 1.54108e-07 1.54098e-07 1.53994e-07 1.53914e-07);
    }
    inlet
    {
        type            calculated;
        value           uniform -0.000402981;
    }
    outlet
    {
        type            calculated;
        value           nonuniform List<scalar> 2(0.00303617 0.00128204);
    }
}


// ************************************************************************* //
