/*--------------------------------*- C++ -*----------------------------------*\
  =========                 |
  \\      /  F ield         | OpenFOAM: The Open Source CFD Toolbox
   \\    /   O peration     | Website:  https://openfoam.org
    \\  /    A nd           | Version:  6
     \\/     M anipulation  |
\*---------------------------------------------------------------------------*/
FoamFile
{
    version     2.0;
    format      ascii;
    class       volScalarField;
    location    "170";
    object      T;
}
// * * * * * * * * * * * * * * * * * * * * * * * * * * * * * * * * * * * * * //

dimensions      [0 0 0 1 0 0 0];

internalField   nonuniform List<scalar> 
459
(
303.753
303.551
303.487
303.137
302.819
302.657
302.564
302.527
302.501
302.48
302.468
302.46
302.455
302.453
302.458
302.283
302.275
302.277
302.273
302.253
302.156
301.999
301.93
301.908
301.899
301.891
301.886
301.887
301.901
301.922
301.955
301.968
301.961
301.968
304.163
304.461
304.437
304.257
303.936
303.497
302.992
302.731
302.608
302.54
302.511
302.497
302.488
302.478
302.465
302.441
302.377
302.321
302.309
302.302
302.3
302.287
302.23
302.117
302.043
302
301.96
301.932
301.92
301.916
301.944
302.012
302.089
302.048
302.008
301.984
304.625
304.634
304.621
304.59
304.445
304.161
303.785
303.374
302.806
302.616
302.559
302.541
302.53
302.517
302.499
302.476
302.447
302.388
302.382
302.389
302.403
302.405
302.38
302.174
302.12
302.089
302.062
302.034
302.005
301.971
302.02
302.136
302.179
302.082
302.049
302.034
304.874
304.667
304.623
304.606
304.548
304.387
304.102
303.712
303.175
302.719
302.61
302.588
302.579
302.568
302.551
302.528
302.504
302.489
302.473
302.488
302.509
302.529
302.54
302.548
302.556
302.558
302.56
302.563
302.565
302.566
302.565
302.56
302.548
302.496
302.404
302.328
302.312
304.727
304.396
304.369
304.433
304.478
304.411
304.194
303.828
303.296
302.801
302.665
302.642
302.639
302.636
302.627
302.614
302.599
302.586
302.579
302.582
302.591
302.598
302.602
302.604
302.604
302.604
302.604
302.605
302.607
302.609
302.609
302.606
302.598
302.578
302.541
302.49
302.447
302.437
302.427
302.525
304.599
304.165
304.186
304.316
304.42
304.394
304.198
303.832
303.29
302.847
302.719
302.697
302.701
302.706
302.704
302.695
302.684
302.672
302.664
302.661
302.66
302.66
302.658
302.654
302.65
302.646
302.643
302.643
302.645
302.649
302.653
302.656
302.657
302.657
302.658
302.659
302.653
302.597
302.509
302.509
304.467
304.05
304.147
304.313
304.393
304.352
304.146
303.771
303.261
302.886
302.771
302.758
302.767
302.78
302.785
302.783
302.775
302.764
302.754
302.745
302.738
302.732
302.724
302.715
302.704
302.694
302.685
302.681
302.683
302.691
302.702
302.714
302.727
302.74
302.753
302.764
302.769
302.752
302.648
302.555
304.323
304.009
304.13
304.305
304.336
304.269
304.06
303.701
303.25
302.937
302.836
302.825
302.84
302.86
302.873
302.877
302.873
302.865
302.854
302.843
302.832
302.82
302.807
302.792
302.774
302.755
302.737
302.724
302.72
302.728
302.744
302.765
302.787
302.808
302.827
302.844
302.859
302.871
302.88
302.886
304.176
303.901
303.888
304.211
304.238
304.16
303.966
303.65
303.27
303.021
302.938
302.923
302.933
302.952
302.967
302.975
302.977
302.972
302.963
302.952
302.939
302.925
302.909
302.89
302.868
302.842
302.814
302.788
302.767
302.757
302.757
302.764
302.778
302.795
302.816
302.838
302.863
302.887
302.918
303.009
303.461
303.987
304.094
304.044
303.891
303.634
303.325
303.163
303.095
303.071
303.068
303.074
303.081
303.086
303.087
303.084
303.077
303.067
303.055
303.04
303.023
303.004
302.98
302.953
302.922
302.889
302.856
302.828
302.807
302.794
302.79
302.792
302.798
302.806
302.812
302.819
302.83
302.866
303.686
303.913
303.959
303.949
303.848
303.635
303.444
303.341
303.287
303.258
303.244
303.234
303.228
303.223
303.217
303.21
303.201
303.191
303.178
303.164
303.148
303.129
303.108
303.082
303.052
303.019
302.983
302.945
302.909
302.878
302.854
302.837
302.827
302.822
302.821
302.823
302.831
302.87
303.801
303.732
303.732
303.868
303.886
303.885
303.826
303.679
303.587
303.53
303.493
303.468
303.45
303.432
303.416
303.4
303.385
303.37
303.356
303.341
303.326
303.311
303.294
303.277
303.259
303.239
303.216
303.191
303.161
303.127
303.09
303.05
303.01
302.975
302.945
302.921
302.901
302.884
302.868
302.888
)
;

boundaryField
{
    floor
    {
        type            wallHeatTransfer;
        Tinf            uniform 305.2;
        alphaWall       uniform 0.24;
        value           nonuniform List<scalar> 
29
(
302.919
302.886
302.825
302.816
302.86
302.917
302.954
303.003
303.004
302.967
302.93
302.929
302.962
302.985
302.896
302.822
302.72
302.657
302.658
302.713
302.713
302.588
302.571
302.653
302.919
302.886
302.805
302.756
302.811
)
;
    }
    ceiling
    {
        type            wallHeatTransfer;
        Tinf            uniform 303.2;
        alphaWall       uniform 0.24;
        value           nonuniform List<scalar> 
43
(
303.767
303.706
303.709
303.817
303.833
303.836
303.782
303.644
303.557
303.503
303.468
303.444
303.426
303.41
303.394
303.38
303.366
303.352
303.338
303.325
303.311
303.298
303.283
303.268
303.251
303.234
303.214
303.192
303.166
303.137
303.103
303.067
303.031
302.998
302.97
302.949
302.931
302.916
302.902
302.921
304.145
303.882
303.671
)
;
    }
    sWall
    {
        type            wallHeatTransfer;
        Tinf            uniform 315.2;
        alphaWall       uniform 0.36;
        value           uniform 304.761;
    }
    nWall
    {
        type            wallHeatTransfer;
        Tinf            uniform 307.2;
        alphaWall       uniform 0.36;
        value           nonuniform List<scalar> 6(303.243 303.138 303.171 303.362 303.413 303.542);
    }
    sideWalls
    {
        type            empty;
    }
    glass1
    {
        type            wallHeatTransfer;
        Tinf            uniform 315.2;
        alphaWall       uniform 4.3;
        value           nonuniform List<scalar> 9(311.05 311.127 310.49 309.535 309.269 309.065 308.857 308.609 308.275);
    }
    glass2
    {
        type            wallHeatTransfer;
        Tinf            uniform 307.2;
        alphaWall       uniform 4.3;
        value           nonuniform List<scalar> 2(305.594 305.554);
    }
    sun
    {
        type            wallHeatTransfer;
        Tinf            uniform 305.2;
        alphaWall       uniform 0.24;
        value           nonuniform List<scalar> 
14
(
303.88
303.683
303.615
303.298
303.032
302.914
302.87
302.865
302.869
302.876
302.884
302.891
302.898
302.906
)
;
    }
    heatsource1
    {
        type            fixedGradient;
        gradient        uniform 0;
    }
    heatsource2
    {
        type            fixedGradient;
        gradient        uniform 0;
    }
    Table_master
    {
        type            zeroGradient;
    }
    Table_slave
    {
        type            zeroGradient;
    }
    inlet
    {
        type            fixedValue;
        value           uniform 290.15;
    }
    outlet
    {
        type            zeroGradient;
    }
}


// ************************************************************************* //
