/*--------------------------------*- C++ -*----------------------------------*\
  =========                 |
  \\      /  F ield         | OpenFOAM: The Open Source CFD Toolbox
   \\    /   O peration     | Website:  https://openfoam.org
    \\  /    A nd           | Version:  6
     \\/     M anipulation  |
\*---------------------------------------------------------------------------*/
FoamFile
{
    version     2.0;
    format      ascii;
    class       volVectorField;
    location    "170";
    object      U;
}
// * * * * * * * * * * * * * * * * * * * * * * * * * * * * * * * * * * * * * //

dimensions      [0 1 -1 0 0 0 0];

internalField   nonuniform List<vector> 
459
(
(-0.0443792 0.0732708 0)
(-0.171586 -0.0102125 0)
(-0.12419 -0.0218712 0)
(-0.115949 0.00308934 0)
(-0.12084 0.00978777 0)
(-0.136356 0.000779809 0)
(-0.145152 -0.0087543 0)
(-0.137272 -0.0142664 0)
(-0.121099 -0.0185402 0)
(-0.0998711 -0.0185769 0)
(-0.0786549 -0.0163269 0)
(-0.0589476 -0.0141054 0)
(-0.0400525 -0.013078 0)
(-0.0274287 -0.0142433 0)
(-0.0538622 -0.0161903 0)
(0.0357282 0.00970407 0)
(-0.0247795 -0.00881243 0)
(-0.0114938 -0.0110242 0)
(-0.00285938 -0.00634596 0)
(0.00207849 0.000432747 0)
(-0.00783318 0.0106795 0)
(-0.0288103 0.00494503 0)
(-0.0363063 -0.00285516 0)
(-0.0370299 -0.00596086 0)
(-0.0339136 -0.00736269 0)
(-0.0291605 -0.00901266 0)
(-0.0216715 -0.011594 0)
(-0.00932551 -0.0155894 0)
(0.0050885 -0.0197779 0)
(0.0169285 -0.013153 0)
(0.0275545 -0.0107198 0)
(0.0338241 -0.0117495 0)
(0.0449768 -0.00424498 0)
(-0.0136647 0.0195812 0)
(0.22819 0.204981 0)
(0.0260851 -0.062394 0)
(0.093905 -0.0642539 0)
(0.0850321 -0.00887207 0)
(0.0686056 0.0368292 0)
(0.0216666 0.0474812 0)
(-0.0504708 0.0160501 0)
(-0.0946483 -0.0138468 0)
(-0.101957 -0.0288075 0)
(-0.0925951 -0.0321657 0)
(-0.0804159 -0.0293442 0)
(-0.0676214 -0.0264877 0)
(-0.0534959 -0.0255756 0)
(-0.0383805 -0.0272306 0)
(-0.0251878 -0.03092 0)
(-0.00818343 -0.0331204 0)
(0.0199015 0.0012595 0)
(0.111009 0.00477134 0)
(0.0369382 0.00166499 0)
(0.00923428 -0.00112865 0)
(0.000822081 -0.000430875 0)
(0.00401581 0.00591673 0)
(0.00929527 0.0167302 0)
(0.00569562 0.0162563 0)
(0.00244923 0.00687165 0)
(0.00171764 0.00116119 0)
(-0.00173854 -0.00222122 0)
(-0.00411306 -0.00578071 0)
(-0.00393681 -0.00951051 0)
(0.00212175 -0.0157612 0)
(-0.00375652 -0.0194751 0)
(-0.0035514 -0.0101194 0)
(0.00726117 -0.0144582 0)
(0.00639471 -0.0201984 0)
(0.0317621 -0.00681566 0)
(-0.076454 0.0438317 0)
(0.512951 0.188113 0)
(0.323376 -0.0200266 0)
(0.325231 -0.0217548 0)
(0.331385 0.0453591 0)
(0.278752 0.099296 0)
(0.200502 0.121113 0)
(0.115519 0.109512 0)
(0.0305069 0.0690896 0)
(-0.0562278 -0.0101804 0)
(-0.073522 -0.0333177 0)
(-0.076225 -0.034861 0)
(-0.0749693 -0.0341303 0)
(-0.0711399 -0.0354391 0)
(-0.0654234 -0.0387381 0)
(-0.0590071 -0.041657 0)
(-0.0533055 -0.0396918 0)
(-0.0506689 -0.0306161 0)
(0.0522761 0.00455904 0)
(-0.0433841 0.00862523 0)
(-0.0407752 0.0072147 0)
(-0.0381456 0.000979992 0)
(-0.0307391 -0.00322493 0)
(-0.0204386 -0.00395966 0)
(0.0238626 0.0164053 0)
(0.0282626 0.0109262 0)
(0.0308706 0.00631623 0)
(0.0316226 0.00265975 0)
(0.0290978 -0.000735855 0)
(0.0231851 -0.00445224 0)
(0.015099 -0.0104795 0)
(-0.0147775 -0.0143315 0)
(-0.0265496 -0.00653733 0)
(-0.0162947 -0.005479 0)
(-0.0372038 0.00320823 0)
(-0.0711927 0.0181393 0)
(-0.154595 0.0338411 0)
(0.696357 -0.333781 0)
(0.332056 -0.259482 0)
(0.363569 -0.122787 0)
(0.376192 0.0190437 0)
(0.321617 0.128255 0)
(0.242529 0.182409 0)
(0.160478 0.184921 0)
(0.08076 0.147482 0)
(0.00358461 0.0702786 0)
(-0.0497326 -0.00869892 0)
(-0.0683307 -0.0255983 0)
(-0.0791201 -0.0296175 0)
(-0.0864352 -0.0327129 0)
(-0.0926151 -0.0356348 0)
(-0.0995483 -0.0357519 0)
(-0.109005 -0.0279932 0)
(-0.119841 -0.00522794 0)
(-0.117297 0.0374574 0)
(-0.0925531 0.0127276 0)
(-0.0935372 0.00905847 0)
(-0.0860341 0.00206694 0)
(-0.0833947 -0.00543075 0)
(-0.0824539 -0.0117871 0)
(-0.0830942 -0.0157288 0)
(-0.0786495 -0.0119271 0)
(-0.0661768 -0.0119334 0)
(-0.0530841 -0.0133377 0)
(-0.0387469 -0.0149897 0)
(-0.0234869 -0.0166899 0)
(-0.0079155 -0.0181228 0)
(0.010598 -0.0178265 0)
(0.0245226 -0.0157866 0)
(0.0380017 -0.0127322 0)
(0.0429701 -0.00741716 0)
(0.0431618 0.00425287 0)
(0.044661 0.00956164 0)
(-0.0636183 0.00658769 0)
(0.674497 -0.516109 0)
(0.0804227 -0.282348 0)
(0.185434 -0.0496575 0)
(0.234783 0.106602 0)
(0.210838 0.202857 0)
(0.163447 0.251449 0)
(0.112175 0.251852 0)
(0.0599201 0.209116 0)
(0.00748466 0.124149 0)
(-0.033023 0.0312662 0)
(-0.0572765 -0.00521802 0)
(-0.0732069 -0.0174992 0)
(-0.0840782 -0.0238843 0)
(-0.0931093 -0.028692 0)
(-0.101529 -0.0319127 0)
(-0.108979 -0.0321086 0)
(-0.113042 -0.0267195 0)
(-0.112813 -0.0136692 0)
(-0.107349 -0.00262874 0)
(-0.0995693 0.00115196 0)
(-0.0919176 -0.00206846 0)
(-0.0868664 -0.00697326 0)
(-0.0837377 -0.0118007 0)
(-0.0810599 -0.0149472 0)
(-0.0763463 -0.0153462 0)
(-0.0690715 -0.0170317 0)
(-0.0605675 -0.0191535 0)
(-0.0512814 -0.0212969 0)
(-0.0416147 -0.0230523 0)
(-0.0320083 -0.0239505 0)
(-0.0224242 -0.0231746 0)
(-0.0130543 -0.0207556 0)
(-0.00265079 -0.0170248 0)
(0.00943614 -0.0123265 0)
(0.0277894 -0.00441794 0)
(0.0563712 0.00652774 0)
(0.0650052 0.0193635 0)
(0.0946886 0.0269433 0)
(0.156896 0.0638667 0)
(-0.411096 -0.0226691 0)
(0.630431 -0.605032 0)
(-0.137178 -0.304351 0)
(0.0786627 -0.0385388 0)
(0.109653 0.121333 0)
(0.0863743 0.226919 0)
(0.0635586 0.2849 0)
(0.0417593 0.289695 0)
(0.0182821 0.245674 0)
(-0.00757406 0.154018 0)
(-0.0280604 0.0599187 0)
(-0.0455088 0.0156821 0)
(-0.0598246 -0.00408172 0)
(-0.0694905 -0.0138389 0)
(-0.0772172 -0.019586 0)
(-0.0841103 -0.022538 0)
(-0.0898857 -0.0222126 0)
(-0.0930651 -0.0184856 0)
(-0.0928304 -0.0131789 0)
(-0.0895674 -0.00832708 0)
(-0.0845412 -0.00631491 0)
(-0.079635 -0.00780144 0)
(-0.0761822 -0.0111137 0)
(-0.074125 -0.0148962 0)
(-0.0726481 -0.0180336 0)
(-0.0706814 -0.0202866 0)
(-0.0679757 -0.0227859 0)
(-0.0649752 -0.0253742 0)
(-0.0620628 -0.0276247 0)
(-0.0595758 -0.0291035 0)
(-0.0577088 -0.0294611 0)
(-0.0562768 -0.0285577 0)
(-0.0548091 -0.0268073 0)
(-0.0524126 -0.024973 0)
(-0.0473961 -0.0239736 0)
(-0.0365032 -0.0244655 0)
(-0.017923 -0.0273587 0)
(0.00912352 -0.0332236 0)
(0.058082 -0.0112382 0)
(0.135478 0.0595652 0)
(-0.0168593 0.087493 0)
(0.523472 -0.585952 0)
(-0.218573 -0.322726 0)
(0.02667 -0.0742445 0)
(-0.00268035 0.151175 0)
(-0.0316505 0.233142 0)
(-0.0258037 0.290125 0)
(-0.0198709 0.297932 0)
(-0.0175744 0.25508 0)
(-0.0203575 0.16594 0)
(-0.0245946 0.0765112 0)
(-0.0326053 0.0289448 0)
(-0.0407306 0.00596618 0)
(-0.047657 -0.00656181 0)
(-0.0528588 -0.0138003 0)
(-0.0575873 -0.0177835 0)
(-0.0615349 -0.0187342 0)
(-0.0639199 -0.0169689 0)
(-0.0641607 -0.0139459 0)
(-0.0624864 -0.0111739 0)
(-0.0598227 -0.0099532 0)
(-0.0573527 -0.0107069 0)
(-0.0559281 -0.0127942 0)
(-0.0557214 -0.0154616 0)
(-0.0564558 -0.0180654 0)
(-0.0577721 -0.0204346 0)
(-0.0597147 -0.0227446 0)
(-0.0626778 -0.0247818 0)
(-0.0670869 -0.0261928 0)
(-0.0732748 -0.0267004 0)
(-0.0812824 -0.0262772 0)
(-0.0907062 -0.0252073 0)
(-0.100952 -0.0240988 0)
(-0.111169 -0.023898 0)
(-0.12023 -0.0261325 0)
(-0.126902 -0.0330778 0)
(-0.129978 -0.0471576 0)
(-0.126808 -0.0663166 0)
(-0.106378 -0.0728997 0)
(0.0202625 -0.00170495 0)
(-0.116583 0.186221 0)
(0.327991 -0.466889 0)
(-0.284036 -0.268719 0)
(-0.185548 -0.0831576 0)
(-0.105627 0.164622 0)
(-0.133837 0.214131 0)
(-0.0941574 0.266193 0)
(-0.0620168 0.279223 0)
(-0.0379559 0.242934 0)
(-0.0224912 0.162035 0)
(-0.0132484 0.0806576 0)
(-0.0123468 0.0344034 0)
(-0.0149306 0.010831 0)
(-0.0182506 -0.00233979 0)
(-0.0207943 -0.0101317 0)
(-0.0235347 -0.0145104 0)
(-0.0260764 -0.0162227 0)
(-0.0279044 -0.0157939 0)
(-0.028611 -0.0141788 0)
(-0.0282572 -0.0124736 0)
(-0.027381 -0.0115079 0)
(-0.0267282 -0.0116247 0)
(-0.0268979 -0.0126159 0)
(-0.028148 -0.0140759 0)
(-0.030491 -0.0155746 0)
(-0.0339304 -0.0168239 0)
(-0.0387363 -0.0175761 0)
(-0.0454579 -0.0174418 0)
(-0.0548161 -0.0160932 0)
(-0.0675656 -0.013483 0)
(-0.0841067 -0.00993559 0)
(-0.103997 -0.00586407 0)
(-0.127753 -0.00237892 0)
(-0.155709 -0.00134178 0)
(-0.187259 -0.00470683 0)
(-0.221189 -0.0135771 0)
(-0.254491 -0.0270613 0)
(-0.282898 -0.041604 0)
(-0.306621 -0.0479915 0)
(-0.363934 -0.0313261 0)
(-0.586732 0.0244409 0)
(0.0428793 -0.313539 0)
(-0.586485 -0.230026 0)
(-0.739993 -0.173071 0)
(-0.183173 0.0831112 0)
(-0.216359 0.157847 0)
(-0.13554 0.216786 0)
(-0.0810114 0.239326 0)
(-0.0395367 0.213596 0)
(-0.00839023 0.1437 0)
(0.0128733 0.0729847 0)
(0.0202675 0.0338094 0)
(0.0216528 0.0123115 0)
(0.0209879 -0.000295681 0)
(0.0199685 -0.00790564 0)
(0.0182835 -0.0121276 0)
(0.0162872 -0.0139777 0)
(0.0143976 -0.0141421 0)
(0.0129669 -0.0133061 0)
(0.0120704 -0.0121776 0)
(0.0114598 -0.0113071 0)
(0.0107032 -0.0109642 0)
(0.00940209 -0.0111209 0)
(0.00732919 -0.0115815 0)
(0.00443258 -0.0120639 0)
(0.000729564 -0.0122714 0)
(-0.00371611 -0.0118062 0)
(-0.00872577 -0.0101691 0)
(-0.0141969 -0.00696517 0)
(-0.0199012 -0.00214351 0)
(-0.0249187 0.00403331 0)
(-0.0305499 0.0109918 0)
(-0.0373334 0.0181495 0)
(-0.0450683 0.0240082 0)
(-0.0540537 0.025917 0)
(-0.0655893 0.0204685 0)
(-0.0841673 0.00420156 0)
(-0.103411 -0.0250663 0)
(-0.0994038 -0.0726772 0)
(-0.125916 -0.153191 0)
(-0.528324 -0.254033 0)
(-1.67961 -0.207444 0)
(-0.0699478 -0.103352 0)
(-0.220416 0.0583846 0)
(-0.136064 0.147372 0)
(-0.0738488 0.183053 0)
(-0.0200435 0.169443 0)
(0.0266338 0.109197 0)
(0.054134 0.059083 0)
(0.066648 0.0291011 0)
(0.0709888 0.0116949 0)
(0.0717775 0.00112405 0)
(0.070729 -0.0055852 0)
(0.0685991 -0.00939707 0)
(0.0658697 -0.0111527 0)
(0.0629717 -0.0115452 0)
(0.0602437 -0.0111389 0)
(0.0578323 -0.0103959 0)
(0.0556664 -0.00965604 0)
(0.0535269 -0.00910676 0)
(0.0511662 -0.00878357 0)
(0.0484023 -0.0086128 0)
(0.0451617 -0.00844725 0)
(0.041483 -0.00810177 0)
(0.0375368 -0.00733821 0)
(0.033669 -0.0058548 0)
(0.030357 -0.00341658 0)
(0.0281799 1.28998e-05 0)
(0.0276605 0.0046061 0)
(0.0286009 0.0103932 0)
(0.0311481 0.0166242 0)
(0.0350383 0.0218785 0)
(0.0396785 0.0244638 0)
(0.0442701 0.0231094 0)
(0.0477767 0.0178129 0)
(0.0551332 0.0107834 0)
(0.0690764 -0.00356906 0)
(0.128493 -0.0715453 0)
(-0.158642 -0.208876 0)
(-0.483758 0.0546536 0)
(0.0465116 -0.119203 0)
(-0.144736 -0.0176509 0)
(-0.106543 0.0751326 0)
(-0.0474641 0.117839 0)
(0.0227168 0.10972 0)
(0.0756981 0.0669914 0)
(0.10867 0.033448 0)
(0.125299 0.0120394 0)
(0.131642 -0.00116831 0)
(0.132707 -0.00939889 0)
(0.130595 -0.01391 0)
(0.126888 -0.0160416 0)
(0.122392 -0.0166503 0)
(0.117663 -0.0163502 0)
(0.113085 -0.015567 0)
(0.10885 -0.0145825 0)
(0.104974 -0.0135677 0)
(0.101354 -0.0125986 0)
(0.0978454 -0.0116727 0)
(0.0943209 -0.0107319 0)
(0.0907106 -0.00968251 0)
(0.0870213 -0.00840905 0)
(0.0833602 -0.0067692 0)
(0.0799911 -0.00459088 0)
(0.0773774 -0.00173018 0)
(0.0762754 0.00185667 0)
(0.0769294 0.0061078 0)
(0.0800525 0.0109552 0)
(0.0859086 0.0159297 0)
(0.0941732 0.0200907 0)
(0.103855 0.0221843 0)
(0.113349 0.0208928 0)
(0.120533 0.0147705 0)
(0.123745 0.00204675 0)
(0.119608 -0.0200725 0)
(0.150339 -0.0667934 0)
(-0.184233 -0.147773 0)
(0.237527 -0.130079 0)
(-0.185824 -0.0532384 0)
(-0.210245 0.131529 0)
(-0.00471219 -0.00643771 0)
(-0.119683 0.0424861 0)
(-0.0839819 0.0719512 0)
(-0.0140011 0.095153 0)
(0.0755492 0.0845387 0)
(0.133885 0.0635064 0)
(0.172082 0.0478778 0)
(0.192088 0.0379426 0)
(0.199816 0.0318625 0)
(0.200761 0.0280665 0)
(0.197666 0.0251226 0)
(0.192682 0.0228197 0)
(0.186775 0.0210205 0)
(0.18054 0.0195791 0)
(0.174395 0.0183579 0)
(0.168586 0.0172382 0)
(0.16321 0.0161175 0)
(0.158271 0.0149067 0)
(0.153738 0.0135245 0)
(0.149588 0.0118897 0)
(0.145834 0.00991139 0)
(0.142532 0.0074799 0)
(0.139781 0.00447268 0)
(0.137727 0.000792835 0)
(0.136572 -0.00355063 0)
(0.13656 -0.00832328 0)
(0.137872 -0.0129613 0)
(0.141023 -0.0168019 0)
(0.146428 -0.0194154 0)
(0.154135 -0.0209426 0)
(0.163444 -0.0221994 0)
(0.172634 -0.0244932 0)
(0.179203 -0.0294167 0)
(0.178875 -0.0373025 0)
(0.166714 -0.0483827 0)
(0.177684 -0.0678135 0)
(-0.199035 -0.110257 0)
)
;

boundaryField
{
    floor
    {
        type            noSlip;
    }
    ceiling
    {
        type            noSlip;
    }
    sWall
    {
        type            noSlip;
    }
    nWall
    {
        type            noSlip;
    }
    sideWalls
    {
        type            empty;
    }
    glass1
    {
        type            noSlip;
    }
    glass2
    {
        type            noSlip;
    }
    sun
    {
        type            noSlip;
    }
    heatsource1
    {
        type            noSlip;
    }
    heatsource2
    {
        type            noSlip;
    }
    Table_master
    {
        type            noSlip;
    }
    Table_slave
    {
        type            noSlip;
    }
    inlet
    {
        type            fixedValue;
        value           uniform (0.1 0 0);
    }
    outlet
    {
        type            zeroGradient;
    }
}


// ************************************************************************* //
