/*--------------------------------*- C++ -*----------------------------------*\
  =========                 |
  \\      /  F ield         | OpenFOAM: The Open Source CFD Toolbox
   \\    /   O peration     | Website:  https://openfoam.org
    \\  /    A nd           | Version:  6
     \\/     M anipulation  |
\*---------------------------------------------------------------------------*/
FoamFile
{
    version     2.0;
    format      ascii;
    class       volScalarField;
    location    "2400";
    object      nut;
}
// * * * * * * * * * * * * * * * * * * * * * * * * * * * * * * * * * * * * * //

dimensions      [0 2 -1 0 0 0 0];

internalField   nonuniform List<scalar> 
459
(
0.00113855
0.0012469
0.00127114
0.00133398
0.00139291
0.00144882
0.00150461
0.0015557
0.00158994
0.00160149
0.00158531
0.00153826
0.00145932
0.00135294
0.00123233
0.000515082
0.000622281
0.00070017
0.000699013
0.000676302
0.000645462
0.000605711
0.000566054
0.000530022
0.000498022
0.000469683
0.000444502
0.000422111
0.000401999
0.000383466
0.000365618
0.000347213
0.000335744
0.000307673
0.00154918
0.00387796
0.00374747
0.00437394
0.00499268
0.00560235
0.00611916
0.00652697
0.00688737
0.00717187
0.00734401
0.00736652
0.00718265
0.00664576
0.00515848
0.00126628
0.000739418
0.000547077
0.00115245
0.00160878
0.00194326
0.00212281
0.00211425
0.0016835
0.00144796
0.00128094
0.00115344
0.0010525
0.000970616
0.00090003
0.000834269
0.00077025
0.000713238
0.00066267
0.000789017
0.000407703
0.00188823
0.00530244
0.00467743
0.00584756
0.0064442
0.00689133
0.00723966
0.00753657
0.00785018
0.00816604
0.00844396
0.00863825
0.00869571
0.00852342
0.00786155
0.00594909
0.00129916
0.00105833
0.00155084
0.00201222
0.00243425
0.00272267
0.00264636
0.000859298
0.000758232
0.000676962
0.000611409
0.000558047
0.000514146
0.000477754
0.000447629
0.000423301
0.000457672
0.000530221
0.000895118
0.000476005
0.00221122
0.00674465
0.00473079
0.00619205
0.00670489
0.00690127
0.00704983
0.00723685
0.00750969
0.00785151
0.00820924
0.00852712
0.00874411
0.00878186
0.00858125
0.00783554
0.00533173
0.00153194
0.00191305
0.00249204
0.00306456
0.00352124
0.00379423
0.00353992
0.000966593
0.000880066
0.000818346
0.000771035
0.000730301
0.00069299
0.000657005
0.000619199
0.00057537
0.000539329
0.000556278
0.00104976
0.000526665
0.00253889
0.008575
0.0052391
0.00601982
0.00665924
0.00672814
0.00671754
0.00685957
0.00710921
0.00747186
0.00787708
0.00824962
0.00849932
0.00857209
0.00846177
0.00813257
0.00738603
0.00613503
0.00570878
0.00557798
0.00553534
0.00549692
0.0054162
0.00517533
0.0043344
0.00393447
0.00370181
0.00352107
0.00333095
0.00305604
0.00269335
0.00226198
0.0017905
0.00132395
0.000978227
0.00102916
0.00069079
0.000641274
0.00076631
0.000858398
0.00288481
0.0105597
0.0071736
0.00615011
0.006614
0.0067273
0.00668854
0.00677887
0.00697422
0.00730767
0.00773896
0.00815409
0.00842435
0.00847136
0.00830712
0.00801913
0.0077013
0.00740124
0.00722981
0.00707327
0.00687223
0.00663629
0.00637697
0.00607532
0.00567276
0.00533015
0.00503815
0.00476611
0.00449343
0.0041938
0.00381145
0.0033326
0.00276108
0.00213746
0.00159503
0.00118542
0.000926996
0.000816952
0.0011825
0.000900622
0.00319195
0.0119081
0.00987725
0.00791948
0.00758431
0.00731123
0.00702255
0.00690773
0.00703225
0.00738721
0.0078774
0.00834037
0.00861223
0.0086035
0.0083497
0.00801464
0.00780527
0.0077798
0.00777478
0.00762535
0.00732589
0.00694144
0.00651911
0.00608357
0.00565689
0.00528616
0.00496368
0.00467268
0.00440796
0.00417329
0.00396534
0.00363679
0.00317394
0.00262001
0.00210209
0.00163801
0.00133348
0.00127329
0.00133657
0.00103912
0.00324482
0.0103916
0.00938633
0.00867911
0.00799864
0.0073199
0.0069024
0.00685341
0.00715926
0.00771688
0.00834957
0.00884644
0.00904113
0.00888325
0.00847737
0.00807927
0.00793128
0.00796344
0.00783433
0.00746542
0.00694343
0.00635598
0.0057725
0.00524925
0.00481867
0.00447841
0.00420326
0.00397769
0.00380035
0.0036781
0.00361817
0.00358095
0.00330564
0.00293632
0.00262399
0.00249063
0.00266301
0.00323941
0.00407271
0.00160003
0.00315302
0.00371729
0.00409405
0.00418638
0.0044016
0.00487961
0.0056353
0.00661516
0.00768986
0.00868159
0.00940185
0.00969456
0.00951941
0.00899572
0.00840858
0.00805819
0.00782759
0.00754434
0.0070738
0.00643488
0.00572552
0.00504699
0.0044727
0.00402881
0.00369843
0.0034461
0.0032414
0.00306682
0.00291252
0.00277142
0.00263803
0.00251674
0.00242197
0.00235986
0.00234981
0.0023787
0.00237451
0.00227339
0.00211205
0.00147243
0.00144558
0.00368114
0.00668485
0.00865514
0.0099636
0.0107713
0.0111175
0.0110716
0.0107123
0.0101287
0.00928416
0.00842359
0.00776816
0.0073001
0.00681229
0.00620877
0.00551979
0.00481957
0.00417845
0.00366065
0.00328005
0.00300923
0.00281259
0.00266273
0.00254364
0.00244803
0.00237407
0.00232363
0.00230202
0.00230719
0.00232722
0.00235861
0.00239
0.00239003
0.0023115
0.0021382
0.00188129
0.00118693
0.00219144
0.00678965
0.00937615
0.0100657
0.010286
0.0101505
0.00968777
0.00901981
0.00826247
0.00752256
0.00682059
0.00622705
0.00572779
0.00522108
0.00467032
0.00411852
0.00361288
0.00318371
0.00284239
0.00258075
0.00239351
0.00226333
0.00217629
0.00212401
0.00210132
0.00210377
0.00212571
0.00216234
0.00222182
0.00229925
0.00239069
0.00248836
0.00257548
0.0026375
0.00262549
0.00262696
0.00237295
0.0012016
0.00196284
0.00208194
0.00216786
0.00233826
0.00224677
0.00216126
0.00209116
0.00198936
0.00185166
0.00168622
0.00150179
0.00131449
0.00114673
0.00101199
0.000910516
0.000835627
0.000780248
0.000739486
0.000710734
0.000692679
0.0006843
0.000684136
0.000689876
0.000700661
0.000715976
0.000735599
0.000759545
0.000788105
0.000821982
0.000862113
0.000907875
0.000959752
0.00101815
0.00108354
0.0011559
0.00125213
0.00127919
0.0012474
0.0011637
0.00107354
)
;

boundaryField
{
    floor
    {
        type            nutkWallFunction;
        Cmu             0.09;
        kappa           0.41;
        E               9.8;
        value           nonuniform List<scalar> 
29
(
0.000147713
6.16417e-05
7.51283e-05
8.47485e-05
8.46066e-05
8.18149e-05
7.80058e-05
7.30635e-05
6.80933e-05
6.35405e-05
5.94651e-05
5.58286e-05
5.25744e-05
4.96612e-05
4.70277e-05
4.4586e-05
4.22204e-05
3.97652e-05
3.82268e-05
3.44316e-05
3.44315e-05
4.77756e-05
5.66415e-05
6.31137e-05
0.000147714
6.16416e-05
6.56999e-05
0.000127556
0.000181703
)
;
    }
    ceiling
    {
        type            nutkWallFunction;
        Cmu             0.09;
        kappa           0.41;
        E               9.8;
        value           nonuniform List<scalar> 
43
(
0.000229157
0.000242095
0.000251381
0.000269829
0.000260064
0.000250868
0.000243294
0.000232236
0.000217176
0.000198915
0.000178323
0.000157122
0.000137844
0.000122129
0.000110135
0.000101185
9.45064e-05
8.95547e-05
8.60426e-05
8.38286e-05
8.27988e-05
8.27786e-05
8.34843e-05
8.48082e-05
8.66843e-05
8.90809e-05
9.19953e-05
9.54573e-05
9.95446e-05
0.000104361
0.000109822
0.000115973
0.000122852
0.000130503
0.000138908
0.000149993
0.000153093
0.00014945
0.00013981
0.000129338
0.000356013
0.00041414
0.000253716
)
;
    }
    sWall
    {
        type            nutkWallFunction;
        Cmu             0.09;
        kappa           0.41;
        E               9.8;
        value           uniform 0.000229222;
    }
    nWall
    {
        type            nutkWallFunction;
        Cmu             0.09;
        kappa           0.41;
        E               9.8;
        value           nonuniform List<scalar> 6(0.000103918 0.000108961 0.000125316 0.000142504 0.000144196 0.000129346);
    }
    sideWalls
    {
        type            empty;
    }
    glass1
    {
        type            nutkWallFunction;
        Cmu             0.09;
        kappa           0.41;
        E               9.8;
        value           nonuniform List<scalar> 9(0.000137025 0.000183892 0.000221533 0.000256709 0.000291836 0.000328406 0.000360496 0.000365998 0.000356477);
    }
    glass2
    {
        type            nutkWallFunction;
        Cmu             0.09;
        kappa           0.41;
        E               9.8;
        value           nonuniform List<scalar> 2(0.000189424 0.000175107);
    }
    sun
    {
        type            nutkWallFunction;
        Cmu             0.09;
        kappa           0.41;
        E               9.8;
        value           nonuniform List<scalar> 
14
(
0.000136898
0.000149387
0.000152165
0.000159339
0.000166033
0.000172354
0.000178636
0.000184366
0.000188194
0.000189483
0.000187676
0.000182411
0.000173537
0.000161495
)
;
    }
    heatsource1
    {
        type            nutkWallFunction;
        Cmu             0.09;
        kappa           0.41;
        E               9.8;
        value           nonuniform List<scalar> 3(7.74885e-05 9.28169e-05 0.000103915);
    }
    heatsource2
    {
        type            nutkWallFunction;
        Cmu             0.09;
        kappa           0.41;
        E               9.8;
        value           nonuniform List<scalar> 4(0.0001516 8.95477e-05 8.95477e-05 0.000155362);
    }
    Table_master
    {
        type            nutkWallFunction;
        Cmu             0.09;
        kappa           0.41;
        E               9.8;
        value           nonuniform List<scalar> 9(0.000104022 9.18364e-05 8.18981e-05 7.37778e-05 6.70898e-05 6.1529e-05 5.68748e-05 5.29889e-05 4.98267e-05);
    }
    Table_slave
    {
        type            nutkWallFunction;
        Cmu             0.09;
        kappa           0.41;
        E               9.8;
        value           nonuniform List<scalar> 9(0.000116778 0.000106505 9.91061e-05 9.339e-05 8.84355e-05 8.38685e-05 7.94358e-05 7.47472e-05 6.92681e-05);
    }
    inlet
    {
        type            calculated;
        value           uniform 0.000100623;
    }
    outlet
    {
        type            calculated;
        value           nonuniform List<scalar> 2(0.00196284 0.00208194);
    }
}


// ************************************************************************* //
