/*--------------------------------*- C++ -*----------------------------------*=========                 |
  \      /  F ield         | OpenFOAM: The Open Source CFD Toolbox
   \    /   O peration     | Website:  https://openfoam.org
    \  /    A nd           | Version:  6
     \/     M anipulation  |
\*---------------------------------------------------------------------------*/
FoamFile
{
    version     2.0;
    format      ascii;
    class       volScalarField;
    location    "2400";
    object      PMV;
}
// * * * * * * * * * * * * * * * * * * * * * * * * * * * * * * * * * * * * * //

dimensions      [0 0 0 0 0 0 0];

internalField   nonuniform List<scalar> 
459
(
1.6533982746655684
1.4371078782261821
1.4109700934856007
1.3879984625392066
1.3725040857358783
1.36358067419706
1.360836722500833
1.3646678734601734
1.3743633054907674
1.391560435205521
1.416691487004421
1.4528153524472385
1.4999879164416279
1.5367687688052705
1.5410681663378396
1.6050637790842366
1.5921714060082737
1.5878736522994035
1.5897837831314543
1.5921714060082737
1.594558983485642
1.593073110603726
1.5886418333736085
1.5880309318238215
1.5889036038337887
1.5903431697863037
1.5922212768544568
1.5941831171958987
1.59752122834889
1.602773859420271
1.6121666360725677
1.62129667849176
1.624638471206389
1.6365726619974998
1.6153551648014695
1.4580655932854016
1.4500288242092862
1.4291612270881262
1.4164007047451244
1.4094738474016653
1.4071105113972224
1.4095943747798485
1.4141218493928713
1.4224419983315844
1.4376233002702414
1.4612000702546484
1.4959370970682717
1.5286473304826618
1.5291250748512468
1.5291250748512468
1.5276918370147898
1.5689967278264414
1.5830981995368192
1.5797552765450649
1.581229227625955
1.5753021322381953
1.570838353226103
1.5693185601566382
1.5698555432271297
1.5709788917787875
1.571768510728748
1.5719254389319446
1.572632164253705
1.5734931881948415
1.5745649932969565
1.5770840565275175
1.58476446318638
1.6026764041591377
1.6084060255132269
1.6003235559594713
1.6577432518431128
1.4609145904989758
1.4859496211010093
1.4759152313960198
1.4733528147061974
1.4729653038179589
1.4743973390357106
1.4752098872972035
1.4709084837469424
1.4644123898765584
1.4611108623856779
1.4666627551293154
1.4848577196747004
1.5158885887779798
1.5267363372507172
1.5291250748512468
1.530080558849094
1.4783830201180004
1.5196494785742176
1.532486514644059
1.5415130201977076
1.551082353555818
1.5579177186741007
1.5607709224065875
1.5687906636014721
1.574394041408915
1.5769363488719152
1.5780137209245655
1.5785278437628256
1.5784749411647065
1.577516005304932
1.5731496088599515
1.5745217534788796
1.5925165159209491
1.5847359093374893
1.539110730139077
1.733648435022516
1.4669158831132858
1.5137755729955291
1.5238390055999937
1.5412277342627443
1.55715110164495
1.5695090393564763
1.5650139119979356
1.5392279865142031
1.5028754419611132
1.472538257248973
1.457051701503088
1.4597883846802162
1.4810132873875785
1.5124855209833556
1.530080558849094
1.5154944077328354
1.4745153739208232
1.4737682104826044
1.5011207338482084
1.5276574932197062
1.5488954082304425
1.5675505332061181
1.5811517798735804
1.5859721937455649
1.5843791701799452
1.5837493023291618
1.584300979588169
1.5855954417729834
1.5888723915986775
1.595538726869132
1.6071376849547712
1.6294442958525697
1.6228329987101984
1.6075580918491807
1.565025891845714
1.4950086161582874
1.8228863347394473
1.4870326201765642
1.5408115818751154
1.569735224161221
1.617386457810398
1.6716669674573217
1.6967013475399009
1.650905930320461
1.5798349889867096
1.5109352726134186
1.4612371555081107
1.4343754756775449
1.4308897731393195
1.4482613705211986
1.4772678427944241
1.5041934441456117
1.5107656576078223
1.5079763782679372
1.5165530253246875
1.540737225796479
1.5704135244156447
1.5973305166245202
1.6197893709013607
1.6363779795966946
1.6451645088693467
1.6485320921856
1.6489880904189473
1.648561897270504
1.6470252109933752
1.6453539614933523
1.6446095481279437
1.645485542496809
1.647234072642983
1.633332703089856
1.6067402629139829
1.5476000050845367
1.5411080981795502
1.6704588574592287
1.6576607235494847
1.4952705170341665
1.9129448150631676
1.529915949546844
1.5933139668564051
1.6231977123534949
1.6919304831881237
1.7205522389924026
1.7104967462014042
1.6311941537779364
1.5536876508794186
1.4825849282720216
1.42972554998128
1.40262545463648
1.4032633110215331
1.4260982301541365
1.4641344176712359
1.50445160795837
1.5358686768714547
1.5571615254225541
1.581056219918011
1.6114882024793156
1.6294122952071213
1.6437325797854079
1.6556647599344967
1.6652095712278996
1.67284481120532
1.6785708803044943
1.6833423653285244
1.6862051510037135
1.6871593952365682
1.6862051510037135
1.6828652266793354
1.6776165571178312
1.6697632866824077
1.6439077632526602
1.6095680618992316
1.5473537864774363
1.544615167886099
1.5603225752135579
1.559545760416503
1.5719851809563132
2.002195878598655
1.6255251043786736
1.7449970053063069
1.7189648949845135
1.7151409196249565
1.689676720318437
1.636974774992016
1.5648508267923917
1.486248097760501
1.418282362393972
1.3742131767153594
1.3618773287233603
1.3798625557550848
1.4217839905950063
1.479130582616485
1.5412766393280428
1.5826206444365432
1.6060187159988315
1.6275027890864728
1.6461191181039783
1.6618689827754312
1.6752307111790927
1.6852508979299905
1.6924075797209015
1.698132562920227
1.7024260865610779
1.7052883329815405
1.7062423967692362
1.7057653660249954
1.70290313335347
1.6976554933880343
1.690499180182504
1.681910942797234
1.6703434644197854
1.6299725934962082
1.5720262831055287
1.5497715076404157
1.5389413110192023
1.5132376285300626
1.5978018927528603
2.134444996086901
1.9444010909746254
1.9005580514628946
1.8006962276852663
1.7420397293000973
1.6610812213278099
1.558068654496194
1.4518747369568203
1.364413658460068
1.3102454523005298
1.296557875480792
1.3220382172369252
1.378275083867852
1.4546413935031202
1.5446925562038893
1.5873961150887972
1.619864452587614
1.6461191181039783
1.6661640060450085
1.681910942797234
1.6943159434489528
1.7038572200780826
1.7110125772710274
1.7157825254211014
1.7191213496849123
1.7210291973614722
1.7219831069860245
1.7215061533601015
1.7195983151518486
1.7162595073711366
1.7110125772710274
1.7033801778599074
1.6952701118408786
1.6857280255708662
1.6747535354987213
1.663777903126181
1.6438282807491016
1.6323783612645373
1.5713749415945018
1.486778876651355
2.331603734576505
2.1996798257287855
2.0342372313581256
1.8540037515763532
1.6490904350730455
1.4346619187913048
1.26540236839701
1.1606769103678305
1.1266055656012344
1.1533422272017415
1.2277105348474333
1.3339192147038739
1.4562136953641647
1.540112755976841
1.5955140017122813
1.639436683369743
1.6675956423529663
1.6871593952365682
1.7014719861269791
1.7124435862140124
1.7210291973614722
1.723244703916217
1.7219620260763637
1.7205547081728476
1.7176758331983712
1.714213418487015
1.709296485736423
1.7026723152774383
1.695013932459087
1.6853342877115838
1.6737274938252849
1.661424650300463
1.649664748938002
1.63535591194557
1.6196976719725715
1.6053931018715615
1.5963198054921
1.5911567583314592
1.5800883974408177
1.550241178509473
-2.9712447494477976
-1.8240841831781227
-1.1318204765075384
-0.38899506811319834
0.16905811757792333
0.6017141006740737
0.9527532542862652
1.2154588982118695
1.3785660343936421
1.5033246638381532
1.5778449959050918
1.6289349216207472
1.6512381122514503
1.6675353075103219
1.6796394537646397
1.6885254555827167
1.6938847843283127
1.6970434505423186
1.697926831357716
1.6973244812620318
1.6952861844089098
1.692147957672551
1.688216178500553
1.6833517092920947
1.6780224506958963
1.6723576249505194
1.6666232986135596
1.6616674999617487
1.657400249570847
1.6547311434258898
1.6530306978095366
1.6514803110636067
1.6511206593359369
1.653172257486388
1.663705434744378
1.6986192114067054
1.7704502342970523
1.6141787303959512
-2.462551757465881
-0.9963489722755664
0.04397517126802566
0.5746302419162413
0.8993740843457276
1.1019694154554929
1.2554416757212226
1.3742898493422764
1.466518203374057
1.5348244559081403
1.5818427627358433
1.6141157679776668
1.6370964648051602
1.6535862025804884
1.6643939348371755
1.6722157584104658
1.6770576365420542
1.6795675057624342
1.6810320447598215
1.6818922946893788
1.6819652246181407
1.6812051376879902
1.6796065521298016
1.6781750028781979
1.67601317380744
1.6742587935260884
1.6726837751578114
1.6717527456328816
1.6725502877877323
1.6754948146008353
1.6829345145434573
1.69431445882984
1.7062689546748726
1.7164034719296315
1.727787713300942
1.766166127758899
1.7013919870265108
1.6521232814031113
-0.8597979710045778
-0.9981338798572009
-0.8781586367478865
0.3699467021956007
0.8838817030026368
1.100111041499945
1.233210670947525
1.3363664455680877
1.4193233097137932
1.4867132443869704
1.5415848475739056
1.5834687163452135
1.6139171295803214
1.6344591921176348
1.6480412338550194
1.6553997712070154
1.6596429338682392
1.6610142374014334
1.6606787869420925
1.660160891843737
1.659763969714567
1.6594989491815757
1.6595823899764874
1.6594774630398341
1.6601682338486499
1.6606777264468788
1.6616196149391962
1.6637305631411061
1.6663954935436105
1.6711168085536925
1.6775843914663098
1.6895528518933716
1.7108859493602009
1.7490799811911786
1.7763396838062409
1.782536125659897
1.7492428241230351
1.7073438300247497
1.6659894104566233
1.671422429196789
)
;

boundaryField
{
    ".*"
    {
        type            zeroGradient;
    }
}


// ************************************************************************* //
