// -*- C++ -*-
// File generated by PyFoam - sorry for the ugliness

FoamFile
{
 version 2.0;
 format ascii;
 class volVectorField;
 location "700";
 object U;
}

dimensions [ 0 1 -1 0 0 0 0 ];

internalField nonuniform List<vector> 459
(
  (0.0376054 0.0874423 0)
  (-0.170021 0.0252625 0)
  (-0.192943 0.0174142 0)
  (-0.222992 0.0119966 0)
  (-0.244694 0.00592322 0)
  (-0.257129 -0.000473378 0)
  (-0.25895 -0.00720491 0)
  (-0.249165 -0.0142609 0)
  (-0.22847 -0.0210938 0)
  (-0.198433 -0.0266667 0)
  (-0.16207 -0.0301434 0)
  (-0.122827 -0.0311964 0)
  (-0.0840517 -0.0302941 0)
  (-0.0510324 -0.029149 0)
  (-0.0398199 -0.029683 0)
  (0.00286385 0.00787574 0)
  (-0.0257266 -0.0202209 0)
  (0.000288512 -0.0288394 0)
  (0.0230478 -0.0207488 0)
  (0.0393181 -0.0136599 0)
  (0.0509975 -0.0085449 0)
  (0.0576599 -0.00500784 0)
  (0.0607703 -0.00317086 0)
  (0.0619945 -0.00237999 0)
  (0.062501 -0.00200856 0)
  (0.0627417 -0.00178133 0)
  (0.062779 -0.00160339 0)
  (0.0625585 -0.00138604 0)
  (0.0618856 -0.000969057 0)
  (0.0602246 2.48651e-05 0)
  (0.0564197 0.00210724 0)
  (0.049288 0.00402104 0)
  (0.0450006 0.00499135 0)
  (-0.0206594 0.0219777 0)
  (0.216352 0.179028 0)
  (-0.158955 0.0670008 0)
  (-0.155048 0.0514246 0)
  (-0.186056 0.039917 0)
  (-0.207414 0.0268721 0)
  (-0.219954 0.0124252 0)
  (-0.222358 -0.00357479 0)
  (-0.213509 -0.0205644 0)
  (-0.194622 -0.036423 0)
  (-0.167582 -0.048755 0)
  (-0.135518 -0.0558722 0)
  (-0.101784 -0.0572275 0)
  (-0.0695636 -0.0534063 0)
  (-0.0426069 -0.0460307 0)
  (-0.0257294 -0.0368376 0)
  (-0.0119775 -0.0177304 0)
  (-0.00626016 0.01416 0)
  (0.0848314 0.0328231 0)
  (0.0341433 -0.0188054 0)
  (0.0392936 -0.0313132 0)
  (0.0506023 -0.026484 0)
  (0.0590818 -0.0179447 0)
  (0.064494 -0.010227 0)
  (0.0665782 -0.00392259 0)
  (0.0667723 -0.000465051 0)
  (0.0665927 0.000993907 0)
  (0.0666123 0.00164514 0)
  (0.0667339 0.00202954 0)
  (0.0668154 0.00233728 0)
  (0.0668112 0.00272639 0)
  (0.0666811 0.00354394 0)
  (0.0658778 0.00569068 0)
  (0.0618925 0.0118847 0)
  (0.0518548 0.0164312 0)
  (0.0505206 0.01834 0)
  (-0.0649533 0.0476972 0)
  (0.379096 0.267683 0)
  (-0.175936 0.107004 0)
  (-0.116546 0.0832001 0)
  (-0.146393 0.0625049 0)
  (-0.165133 0.0410797 0)
  (-0.176447 0.0177583 0)
  (-0.178216 -0.00808036 0)
  (-0.168708 -0.0350949 0)
  (-0.15018 -0.0595229 0)
  (-0.125176 -0.0775781 0)
  (-0.0969599 -0.0870864 0)
  (-0.0684264 -0.0877885 0)
  (-0.0418242 -0.08075 0)
  (-0.0192334 -0.0675185 0)
  (-0.00266032 -0.0495563 0)
  (0.0101077 -0.024286 0)
  (0.0184437 0.00930208 0)
  (0.121574 -0.0426063 0)
  (0.0751652 -0.0448202 0)
  (0.0687669 -0.0400487 0)
  (0.0709403 -0.0317573 0)
  (0.072443 -0.0224016 0)
  (0.0732762 -0.0145567 0)
  (0.0719793 -0.0117054 0)
  (0.0683577 -0.00828462 0)
  (0.0659621 -0.0064585 0)
  (0.0650615 -0.00543521 0)
  (0.0648318 -0.00479595 0)
  (0.0648403 -0.00435315 0)
  (0.0651082 -0.00392177 0)
  (0.0660884 -0.00317615 0)
  (0.0689489 -0.000119582 0)
  (0.0663216 0.0174124 0)
  (0.0511927 0.0286017 0)
  (0.0587791 0.0342565 0)
  (-0.104014 0.0735474 0)
  (0.52448 0.338948 0)
  (-0.210209 0.1429 0)
  (-0.0762419 0.110082 0)
  (-0.103921 0.081358 0)
  (-0.117038 0.0537248 0)
  (-0.124444 0.0231156 0)
  (-0.122524 -0.0122782 0)
  (-0.110082 -0.0495313 0)
  (-0.0912651 -0.0816153 0)
  (-0.0691461 -0.103843 0)
  (-0.046546 -0.114333 0)
  (-0.0253264 -0.113734 0)
  (-0.00631474 -0.103844 0)
  (0.0103161 -0.0861081 0)
  (0.0239387 -0.0639373 0)
  (0.0384258 -0.0380146 0)
  (0.0606723 -0.0106848 0)
  (0.0910908 0.0107741 0)
  (0.0977806 -0.0307334 0)
  (0.0821266 -0.0378415 0)
  (0.0738694 -0.0336072 0)
  (0.070677 -0.0276315 0)
  (0.0687743 -0.0205538 0)
  (0.0683059 -0.0121218 0)
  (0.0710474 -0.00745348 0)
  (0.0765339 -0.0062473 0)
  (0.0814451 -0.00553957 0)
  (0.0852912 -0.00488495 0)
  (0.0880486 -0.0039012 0)
  (0.0890025 -0.0023324 0)
  (0.0866615 6.13637e-05 0)
  (0.0796984 0.00354053 0)
  (0.0651669 0.00867993 0)
  (0.052089 0.0295212 0)
  (0.0379263 0.0455654 0)
  (0.0632174 0.0560782 0)
  (-0.155352 0.095103 0)
  (0.648444 0.394292 0)
  (-0.251206 0.172594 0)
  (-0.0370958 0.12511 0)
  (-0.0590761 0.0916081 0)
  (-0.0637701 0.0603827 0)
  (-0.0638195 0.0244455 0)
  (-0.052014 -0.0196894 0)
  (-0.034794 -0.0653753 0)
  (-0.0168874 -0.101488 0)
  (-0.000341221 -0.12435 0)
  (0.0134576 -0.133013 0)
  (0.0241981 -0.129605 0)
  (0.0325463 -0.117165 0)
  (0.0392382 -0.0981621 0)
  (0.0452862 -0.0753938 0)
  (0.0524889 -0.0517355 0)
  (0.0633758 -0.0326762 0)
  (0.0734538 -0.0283357 0)
  (0.0746869 -0.0354366 0)
  (0.0680989 -0.0341871 0)
  (0.0603689 -0.0291419 0)
  (0.0549471 -0.0238578 0)
  (0.0515276 -0.0184863 0)
  (0.0502938 -0.0129044 0)
  (0.0516118 -0.00817383 0)
  (0.0551882 -0.00617679 0)
  (0.0591061 -0.00547916 0)
  (0.0629669 -0.00463855 0)
  (0.0665148 -0.00266014 0)
  (0.0691781 0.00110853 0)
  (0.069597 0.00663521 0)
  (0.0669604 0.013895 0)
  (0.0606637 0.0234091 0)
  (0.0526904 0.0397117 0)
  (0.0396675 0.0581529 0)
  (0.0704809 0.0776181 0)
  (-0.04445 0.106465 0)
  (0.0492816 0.0218452 0)
  (-0.0690537 -0.0366207 0)
  (-0.290103 -0.0608692 0)
  (0.736882 0.440463 0)
  (-0.290307 0.192577 0)
  (-0.00787758 0.11973 0)
  (-0.011736 0.0902186 0)
  (-0.00411347 0.0598961 0)
  (0.0077486 0.016936 0)
  (0.0365925 -0.036686 0)
  (0.056042 -0.0826321 0)
  (0.0691355 -0.115438 0)
  (0.0760398 -0.134022 0)
  (0.0776181 -0.139217 0)
  (0.0753595 -0.133209 0)
  (0.0707447 -0.118889 0)
  (0.0652179 -0.0991399 0)
  (0.0601807 -0.0768517 0)
  (0.0568787 -0.0549197 0)
  (0.0561531 -0.0372288 0)
  (0.0556701 -0.0283861 0)
  (0.0518022 -0.0267797 0)
  (0.0445256 -0.0253416 0)
  (0.0368601 -0.02234 0)
  (0.0310939 -0.01899 0)
  (0.0275278 -0.0156977 0)
  (0.0263012 -0.0125002 0)
  (0.0273707 -0.0101471 0)
  (0.0302713 -0.00963967 0)
  (0.0340288 -0.00982382 0)
  (0.0382871 -0.00938962 0)
  (0.0428378 -0.00725856 0)
  (0.0473048 -0.00245213 0)
  (0.0513218 0.005315 0)
  (0.0532351 0.0152782 0)
  (0.0534505 0.0273127 0)
  (0.0536745 0.0428033 0)
  (0.0506768 0.0610005 0)
  (0.0790524 0.0843493 0)
  (0.048119 0.100014 0)
  (0.0996052 0.0660698 0)
  (0.12387 0.0443226 0)
  (-0.137658 -0.0083784 0)
  (0.791732 0.482761 0)
  (-0.307959 0.177931 0)
  (0.0219545 0.0649162 0)
  (0.0538943 0.0585691 0)
  (0.0771506 0.0397688 0)
  (0.113249 -0.00787628 0)
  (0.14238 -0.0582212 0)
  (0.158008 -0.0964751 0)
  (0.161363 -0.120778 0)
  (0.154611 -0.131973 0)
  (0.140485 -0.13169 0)
  (0.121916 -0.122236 0)
  (0.101582 -0.106392 0)
  (0.081728 -0.0869226 0)
  (0.0640458 -0.0662626 0)
  (0.0495918 -0.0467286 0)
  (0.0388245 -0.0312423 0)
  (0.0305664 -0.0222559 0)
  (0.0228595 -0.0189159 0)
  (0.0150661 -0.0175146 0)
  (0.00819567 -0.0160132 0)
  (0.00315524 -0.0145293 0)
  (8.03496e-05 -0.0132633 0)
  (-0.000983859 -0.0122945 0)
  (-0.000196152 -0.0120397 0)
  (0.00198192 -0.0128179 0)
  (0.00493554 -0.0138332 0)
  (0.0085004 -0.0140991 0)
  (0.0127725 -0.0126285 0)
  (0.0179204 -0.00824753 0)
  (0.024962 0.00020058 0)
  (0.0322116 0.0114699 0)
  (0.0385573 0.0239472 0)
  (0.0463435 0.0379397 0)
  (0.0538637 0.0528757 0)
  (0.0794662 0.0717146 0)
  (0.0916898 0.0760183 0)
  (0.128957 0.0476525 0)
  (0.171263 0.0410732 0)
  (-0.0280038 0.09773 0)
  (0.899672 0.483753 0)
  (-0.0613313 0.157389 0)
  (0.116454 -0.0197194 0)
  (0.194533 -0.0511569 0)
  (0.232699 -0.0597195 0)
  (0.261043 -0.0776473 0)
  (0.274799 -0.0958969 0)
  (0.271805 -0.108845 0)
  (0.253546 -0.114815 0)
  (0.224065 -0.11375 0)
  (0.187977 -0.106361 0)
  (0.14948 -0.093912 0)
  (0.112012 -0.0781627 0)
  (0.0781056 -0.061033 0)
  (0.049258 -0.044073 0)
  (0.0262141 -0.0288039 0)
  (0.00950509 -0.0176744 0)
  (-0.00221288 -0.0119116 0)
  (-0.0104852 -0.0104194 0)
  (-0.0170969 -0.0103977 0)
  (-0.0223659 -0.0105399 0)
  (-0.0262496 -0.0107606 0)
  (-0.0288434 -0.0111686 0)
  (-0.030237 -0.0118679 0)
  (-0.0306265 -0.0130231 0)
  (-0.0303936 -0.0146199 0)
  (-0.0298804 -0.0162303 0)
  (-0.0291288 -0.0173054 0)
  (-0.0279016 -0.0172709 0)
  (-0.0256929 -0.0154683 0)
  (-0.0213372 -0.0110819 0)
  (-0.0108869 -0.00333984 0)
  (-0.000165568 0.00672498 0)
  (0.011635 0.0162832 0)
  (0.0233797 0.0237103 0)
  (0.0440953 0.0315509 0)
  (0.0606334 0.0221649 0)
  (0.0764784 -0.00725356 0)
  (0.137654 0.0492703 0)
  (-0.473218 0.229138 0)
  (1.05209 0.428287 0)
  (0.49889 0.279495 0)
  (0.516555 0.176655 0)
  (0.551136 0.105036 0)
  (0.531577 0.0547669 0)
  (0.486702 0.0116849 0)
  (0.434385 -0.0226515 0)
  (0.376664 -0.0456438 0)
  (0.31391 -0.0573705 0)
  (0.249308 -0.0597666 0)
  (0.186841 -0.0554699 0)
  (0.129702 -0.0468304 0)
  (0.080171 -0.0359577 0)
  (0.0394024 -0.0247849 0)
  (0.00711681 -0.0146638 0)
  (-0.0163322 -0.00713355 0)
  (-0.0296619 -0.003874 0)
  (-0.0380059 -0.003299 0)
  (-0.0438146 -0.00425857 0)
  (-0.0484633 -0.00567253 0)
  (-0.0523412 -0.00704746 0)
  (-0.0555959 -0.00835637 0)
  (-0.0583984 -0.00967394 0)
  (-0.0609354 -0.0110644 0)
  (-0.0634688 -0.0125604 0)
  (-0.0663455 -0.0140533 0)
  (-0.0698931 -0.0152152 0)
  (-0.0743717 -0.0155764 0)
  (-0.0800559 -0.0145563 0)
  (-0.087362 -0.011429 0)
  (-0.0969059 -0.00528461 0)
  (-0.109003 0.0045907 0)
  (-0.121246 0.017617 0)
  (-0.139241 0.0336851 0)
  (-0.168191 0.0522073 0)
  (-0.210457 0.0708914 0)
  (-0.269492 0.084278 0)
  (-0.334192 0.0893373 0)
  (-0.405265 0.0869548 0)
  (-0.672867 0.0778138 0)
  (-0.19934 -0.0120313 0)
  (0.10785 -0.0169991 0)
  (0.187751 -0.0408418 0)
  (0.173584 -0.0402239 0)
  (0.156479 -0.0314988 0)
  (0.134529 -0.0224258 0)
  (0.104221 -0.0139312 0)
  (0.0692642 -0.00661396 0)
  (0.0340543 -0.00101722 0)
  (0.000970743 0.00284146 0)
  (-0.0257784 0.00467842 0)
  (-0.0444971 0.0048457 0)
  (-0.0570658 0.0038212 0)
  (-0.0643337 0.00162217 0)
  (-0.0683747 -0.00132878 0)
  (-0.0712202 -0.00437768 0)
  (-0.0736965 -0.00730767 0)
  (-0.0762877 -0.00969113 0)
  (-0.0788866 -0.0115578 0)
  (-0.0815304 -0.0130552 0)
  (-0.0844041 -0.0142592 0)
  (-0.0877103 -0.0152222 0)
  (-0.0916664 -0.0159451 0)
  (-0.0964708 -0.0163132 0)
  (-0.102223 -0.0160381 0)
  (-0.10885 -0.0146491 0)
  (-0.116033 -0.0115226 0)
  (-0.123129 -0.0059642 0)
  (-0.129272 0.00271971 0)
  (-0.133654 0.0143662 0)
  (-0.13708 0.0300467 0)
  (-0.140171 0.05009 0)
  (-0.144451 0.0729933 0)
  (-0.150611 0.0935942 0)
  (-0.154719 0.100441 0)
  (-0.136008 0.0724399 0)
  (-0.0744285 -0.0333557 0)
  (-0.28991 -0.23443 0)
  (0.0124745 0.206653 0)
  (0.016087 0.0733563 0)
  (-0.0318417 0.0195623 0)
  (-0.0491286 0.0170891 0)
  (-0.0627191 0.0210609 0)
  (-0.0737145 0.0240058 0)
  (-0.0821434 0.0270193 0)
  (-0.0893781 0.0302578 0)
  (-0.0949388 0.0328081 0)
  (-0.0988506 0.0341571 0)
  (-0.101051 0.0344965 0)
  (-0.101684 0.0347981 0)
  (-0.101172 0.0356827 0)
  (-0.0999552 0.0371576 0)
  (-0.0986721 0.0392011 0)
  (-0.0977379 0.0415663 0)
  (-0.0973312 0.0435362 0)
  (-0.0974282 0.0441551 0)
  (-0.0979864 0.0440664 0)
  (-0.0989927 0.0438178 0)
  (-0.100435 0.0433637 0)
  (-0.102302 0.0426197 0)
  (-0.104593 0.0415327 0)
  (-0.107291 0.0400968 0)
  (-0.110326 0.038352 0)
  (-0.113553 0.0363523 0)
  (-0.116728 0.0341058 0)
  (-0.11934 0.0314311 0)
  (-0.120279 0.0300875 0)
  (-0.117925 0.0322136 0)
  (-0.110559 0.0392078 0)
  (-0.0971031 0.0522317 0)
  (-0.0783717 0.070875 0)
  (-0.055643 0.0891682 0)
  (-0.0316918 0.0984336 0)
  (0.012433 0.0796248 0)
  (0.142668 0.00242825 0)
  (-0.204707 -0.147467 0)
  (-0.108285 -0.355127 0)
  (-0.45496 -0.138455 0)
  (-0.338955 0.0509309 0)
  (-0.285653 -0.0480561 0)
  (-0.241611 -0.0599334 0)
  (-0.227037 -0.0544974 0)
  (-0.217767 -0.0483035 0)
  (-0.208306 -0.0443694 0)
  (-0.197066 -0.0425203 0)
  (-0.183865 -0.042986 0)
  (-0.169367 -0.0465003 0)
  (-0.154838 -0.0532957 0)
  (-0.141573 -0.0628665 0)
  (-0.130409 -0.0740613 0)
  (-0.121634 -0.0859781 0)
  (-0.115173 -0.0981244 0)
  (-0.110737 -0.109765 0)
  (-0.10791 -0.120008 0)
  (-0.106368 -0.128092 0)
  (-0.10602 -0.133357 0)
  (-0.106806 -0.136469 0)
  (-0.108448 -0.137974 0)
  (-0.110646 -0.138014 0)
  (-0.113177 -0.136668 0)
  (-0.115862 -0.133951 0)
  (-0.118513 -0.129818 0)
  (-0.120877 -0.124167 0)
  (-0.122592 -0.116792 0)
  (-0.123191 -0.107321 0)
  (-0.122104 -0.0951642 0)
  (-0.118315 -0.0816005 0)
  (-0.109501 -0.0667056 0)
  (-0.0924273 -0.0502224 0)
  (-0.065101 -0.0312313 0)
  (-0.030349 -0.00910289 0)
  (0.0340092 0.0194668 0)
  (0.0839539 0.0177102 0)
  (0.132959 -0.00639185 0)
  (0.181738 -0.0500095 0)
  (-0.161328 -0.120847 0)
)
;

boundaryField
{
  floor
  {
    type noSlip;
  }
  ceiling
  {
    type noSlip;
  }
  sWall
  {
    type noSlip;
  }
  nWall
  {
    type noSlip;
  }
  sideWalls
  {
    type empty;
  }
  glass1
  {
    type noSlip;
  }
  glass2
  {
    type noSlip;
  }
  sun
  {
    type noSlip;
  }
  heatsource1
  {
    type noSlip;
  }
  heatsource2
  {
    type noSlip;
  }
  Table_master
  {
    type noSlip;
  }
  Table_slave
  {
    type noSlip;
  }
  inlet
  {
    type fixedValue;
    value uniform (0.277164 -0.114805 0);
  }
  outlet
  {
    type zeroGradient;
  }
} 	// ************************************************************************* //

