/*--------------------------------*- C++ -*----------------------------------*\
  =========                 |
  \\      /  F ield         | OpenFOAM: The Open Source CFD Toolbox
   \\    /   O peration     | Website:  https://openfoam.org
    \\  /    A nd           | Version:  6
     \\/     M anipulation  |
\*---------------------------------------------------------------------------*/
FoamFile
{
    version     2.0;
    format      ascii;
    class       volScalarField;
    location    "2000";
    object      epsilon;
}
// * * * * * * * * * * * * * * * * * * * * * * * * * * * * * * * * * * * * * //

dimensions      [0 2 -3 0 0 0 0];

internalField   nonuniform List<scalar> 
459
(
0.000517694
0.000679424
0.000719021
0.000830709
0.000945347
0.00106321
0.00118986
0.00131564
0.00140554
0.0014383
0.00139763
0.00127987
0.00109662
0.000879067
0.000671494
4.78454e-05
8.46825e-05
0.000120102
0.000118775
0.000107266
9.30797e-05
7.69179e-05
6.28187e-05
5.16073e-05
4.28418e-05
3.59578e-05
3.04957e-05
2.61326e-05
2.25863e-05
1.96159e-05
1.70124e-05
1.45784e-05
1.3211e-05
1.01988e-05
0.00130815
0.00185484
0.000644172
0.000626611
0.000662046
0.000718039
0.000798001
0.000896376
0.000983861
0.00103329
0.0010251
0.000955191
0.000832759
0.000684934
0.000574921
0.000728163
0.000134946
5.79924e-05
0.000136822
0.00014498
0.000132083
0.000112595
9.44228e-05
8.51347e-05
6.90656e-05
5.48471e-05
4.35598e-05
3.48369e-05
2.8126e-05
2.29704e-05
1.90102e-05
1.60862e-05
1.42972e-05
1.35373e-05
3.539e-05
2.38705e-05
0.00237304
0.00449096
0.000810378
0.000607899
0.000644567
0.000733779
0.000861065
0.00100996
0.00113589
0.00120468
0.00120028
0.00112655
0.000995497
0.00083816
0.000696287
0.000629102
0.000772312
0.000425797
0.000307255
0.000232643
0.000180193
0.000142281
0.000120049
0.000219843
0.000151218
0.000107774
7.95181e-05
6.05509e-05
4.74227e-05
3.81005e-05
3.1376e-05
2.65568e-05
2.02e-05
1.70688e-05
6.77247e-05
3.81068e-05
0.00381625
0.00922696
0.00130138
0.000637473
0.000654426
0.000787461
0.000993212
0.00121563
0.0013727
0.00144063
0.00141918
0.00132265
0.00116069
0.000971591
0.000801559
0.000686648
0.000667139
0.00127036
0.000718539
0.000432009
0.000289392
0.000208711
0.000159134
0.000136469
0.000312487
0.000236159
0.000190145
0.000159267
0.000135525
0.0001159
9.88828e-05
8.29017e-05
6.66433e-05
3.9237e-05
2.6283e-05
0.000116842
5.16634e-05
0.00578256
0.0162805
0.00258736
0.00081251
0.000729163
0.000923622
0.00129685
0.00159354
0.00174065
0.00176944
0.00170536
0.00156265
0.00135478
0.00111174
0.000873313
0.000674315
0.000536353
0.000480344
0.000390486
0.000307103
0.000240193
0.000189075
0.000151218
0.000126488
0.000122364
0.000113909
0.00010539
9.68522e-05
8.77817e-05
7.82865e-05
6.90238e-05
6.03471e-05
5.23581e-05
4.14496e-05
3.20258e-05
8.19507e-05
5.83736e-05
9.36084e-05
0.000159462
0.000223976
0.00848895
0.0239865
0.00577978
0.00167828
0.00124326
0.00156299
0.002088
0.00229014
0.00231425
0.00224479
0.00210809
0.00189777
0.00161611
0.00129083
0.000969138
0.000698494
0.000507106
0.000394638
0.000322741
0.000264523
0.000213701
0.000172255
0.000141171
0.000120834
0.000111391
0.000107454
0.000104913
0.000101494
9.58631e-05
8.70013e-05
7.55449e-05
6.40789e-05
5.3772e-05
4.45871e-05
3.9169e-05
5.84401e-05
6.01331e-05
7.23655e-05
0.000297742
0.000258545
0.0115074
0.0285149
0.0116591
0.00533848
0.00396485
0.00395316
0.00375545
0.00347275
0.0031925
0.00293555
0.00266907
0.00234558
0.00194851
0.00150711
0.00108079
0.000733014
0.000496968
0.000361014
0.00028374
0.000229376
0.00018538
0.00015168
0.00012885
0.000116471
0.000113121
0.000115114
0.000118763
0.000122131
0.000123753
0.000121499
0.000110924
9.73733e-05
8.43002e-05
7.32113e-05
6.94097e-05
8.13066e-05
0.000106427
0.00018043
0.000423258
0.000396888
0.0120913
0.0299026
0.0172029
0.0122962
0.0096549
0.00753203
0.00600073
0.00497996
0.00431582
0.00384376
0.00341203
0.00291436
0.00233122
0.00171449
0.00114559
0.000711817
0.000444404
0.000302384
0.000230004
0.000184644
0.00015204
0.000130377
0.000118646
0.000115391
0.000118807
0.000126793
0.000137841
0.000151576
0.000168075
0.000187066
0.00020691
0.000215623
0.000226394
0.000250686
0.000301709
0.000469113
0.000913412
0.00184714
0.00543464
0.00145198
0.0110937
0.0181875
0.0146173
0.011188
0.00878505
0.00727409
0.00636616
0.00582298
0.00543033
0.00499417
0.00437826
0.00354559
0.00261371
0.00172941
0.000990823
0.000529914
0.000324256
0.000227216
0.000175669
0.000143964
0.000123946
0.000113064
0.000109646
0.000112189
0.000119502
0.000130907
0.000146502
0.000167274
0.000195016
0.000232359
0.000282896
0.00035189
0.000447148
0.000593954
0.000809375
0.00109892
0.00142287
0.00169119
0.00188573
0.00113087
0.00376763
0.00662507
0.00845095
0.00891851
0.00889557
0.0084254
0.00744292
0.00606088
0.00448186
0.00285728
0.00171892
0.000998797
0.000568599
0.000342135
0.000233654
0.000178801
0.000147772
0.000128272
0.000116149
0.000109895
0.000108398
0.000110727
0.000116348
0.000125178
0.000137625
0.000154685
0.000178117
0.000210795
0.000257255
0.000323571
0.00041684
0.000546201
0.000713786
0.000898855
0.00104396
0.00107636
0.000941728
0.000592156
0.00372456
0.00844336
0.00845984
0.00702265
0.00609799
0.00512972
0.0040595
0.0029987
0.00205257
0.00129206
0.000788365
0.000490331
0.000326705
0.000242342
0.000199096
0.000174609
0.000158388
0.000146263
0.000136812
0.000129988
0.000126092
0.000125163
0.000127383
0.000133201
0.000143358
0.000158948
0.000181566
0.000213555
0.000258308
0.000320466
0.000406236
0.000521712
0.000667054
0.000832479
0.000955128
0.00106147
0.000809826
0.000614432
0.00267562
0.00319205
0.0036032
0.00452052
0.00401866
0.00357995
0.00324929
0.00280549
0.00227017
0.00172141
0.00122141
0.000821682
0.000545303
0.000373393
0.000270557
0.000208172
0.000168977
0.000143715
0.000127651
0.000118304
0.000114225
0.000114114
0.000116918
0.000122353
0.000130403
0.000141268
0.000155374
0.000173436
0.000196656
0.00022686
0.000264944
0.00031306
0.000373837
0.000450711
0.000547309
0.000696174
0.000742353
0.000688411
0.000558866
0.000438707
)
;

boundaryField
{
    floor
    {
        Cmu             0.09;
        kappa           0.41;
        E               9.8;
        type            epsilonWallFunction;
        value           nonuniform List<scalar> 
29
(
0.000671494
4.78454e-05
8.46825e-05
0.000120102
0.000118775
0.000107266
9.30797e-05
7.69179e-05
6.28187e-05
5.16073e-05
4.28418e-05
3.59578e-05
3.04957e-05
2.61326e-05
2.25863e-05
1.96159e-05
1.70124e-05
1.45784e-05
1.3211e-05
1.01988e-05
1.01988e-05
2.38705e-05
3.81068e-05
5.16634e-05
0.000671494
4.78454e-05
5.79924e-05
0.000425797
0.00127036
)
;
    }
    ceiling
    {
        Cmu             0.09;
        kappa           0.41;
        E               9.8;
        type            epsilonWallFunction;
        value           nonuniform List<scalar> 
43
(
0.00267562
0.00319205
0.0036032
0.00452052
0.00401866
0.00357995
0.00324929
0.00280549
0.00227017
0.00172141
0.00122141
0.000821682
0.000545303
0.000373393
0.000270557
0.000208172
0.000168977
0.000143715
0.000127651
0.000118304
0.000114225
0.000114114
0.000116918
0.000122353
0.000130403
0.000141268
0.000155374
0.000173436
0.000196656
0.00022686
0.000264944
0.00031306
0.000373837
0.000450711
0.000547309
0.000696174
0.000742353
0.000688411
0.000558866
0.000438707
0.0110937
0.0181875
0.00372456
)
;
    }
    sWall
    {
        Cmu             0.09;
        kappa           0.41;
        E               9.8;
        type            epsilonWallFunction;
        value           uniform 0.00267562;
    }
    nWall
    {
        Cmu             0.09;
        kappa           0.41;
        E               9.8;
        type            epsilonWallFunction;
        value           nonuniform List<scalar> 6(0.000223976 0.000258545 0.000396888 0.000592156 0.000614432 0.000438707);
    }
    sideWalls
    {
        type            empty;
    }
    glass1
    {
        Cmu             0.09;
        kappa           0.41;
        E               9.8;
        type            epsilonWallFunction;
        value           nonuniform List<scalar> 9(0.000517694 0.00130815 0.00237304 0.00381625 0.00578256 0.00848895 0.0115074 0.0120913 0.0110937);
    }
    glass2
    {
        Cmu             0.09;
        kappa           0.41;
        E               9.8;
        type            epsilonWallFunction;
        value           nonuniform List<scalar> 2(0.00145198 0.00113087);
    }
    sun
    {
        Cmu             0.09;
        kappa           0.41;
        E               9.8;
        type            epsilonWallFunction;
        value           nonuniform List<scalar> 
14
(
0.000517694
0.000679424
0.000719021
0.000830709
0.000945347
0.00106321
0.00118986
0.00131564
0.00140554
0.0014383
0.00139763
0.00127987
0.00109662
0.000879067
)
;
    }
    heatsource1
    {
        Cmu             0.09;
        kappa           0.41;
        E               9.8;
        type            epsilonWallFunction;
        value           nonuniform List<scalar> 3(9.36084e-05 0.000159462 0.000223976);
    }
    heatsource2
    {
        Cmu             0.09;
        kappa           0.41;
        E               9.8;
        type            epsilonWallFunction;
        value           nonuniform List<scalar> 4(0.000728163 0.000134946 0.000134946 0.000772312);
    }
    Table_master
    {
        Cmu             0.09;
        kappa           0.41;
        E               9.8;
        type            epsilonWallFunction;
        value           nonuniform List<scalar> 9(0.000219843 0.000151218 0.000107774 7.95181e-05 6.05509e-05 4.74227e-05 3.81005e-05 3.1376e-05 2.65568e-05);
    }
    Table_slave
    {
        Cmu             0.09;
        kappa           0.41;
        E               9.8;
        type            epsilonWallFunction;
        value           nonuniform List<scalar> 9(0.000312487 0.000236159 0.000190145 0.000159267 0.000135525 0.0001159 9.88828e-05 8.29017e-05 6.66433e-05);
    }
    inlet
    {
        type            turbulentMixingLengthDissipationRateInlet;
        mixingLength    0.01;
        phi             phi;
        k               k;
        value           uniform 0.000101881;
    }
    outlet
    {
        type            zeroGradient;
    }
}


// ************************************************************************* //
