/*--------------------------------*- C++ -*----------------------------------*\
  =========                 |
  \\      /  F ield         | OpenFOAM: The Open Source CFD Toolbox
   \\    /   O peration     | Website:  https://openfoam.org
    \\  /    A nd           | Version:  6
     \\/     M anipulation  |
\*---------------------------------------------------------------------------*/
FoamFile
{
    version     2.0;
    format      ascii;
    class       volScalarField;
    location    "2300";
    object      epsilon;
}
// * * * * * * * * * * * * * * * * * * * * * * * * * * * * * * * * * * * * * //

dimensions      [0 2 -3 0 0 0 0];

internalField   nonuniform List<scalar> 
459
(
0.00052139
0.000685186
0.000726023
0.000839127
0.000955291
0.00107493
0.00120386
0.00133066
0.00142036
0.00145143
0.00140788
0.0012865
0.00109919
0.000877369
0.000665103
4.82039e-05
8.50931e-05
0.000121103
0.000120196
0.00010862
9.42397e-05
7.77743e-05
6.34176e-05
5.20264e-05
4.31399e-05
3.61737e-05
3.06545e-05
2.6247e-05
2.26701e-05
1.96776e-05
1.70573e-05
1.46089e-05
1.32037e-05
1.01608e-05
0.00131428
0.00185743
0.000648817
0.000631252
0.000667056
0.000724097
0.000805951
0.000905927
0.000994037
0.00104268
0.00103275
0.000960775
0.000836398
0.000687085
0.000574035
0.000721845
0.000140407
5.79014e-05
0.000137326
0.0001463
0.000133528
0.000113867
9.5418e-05
8.60308e-05
6.96238e-05
5.51494e-05
4.36997e-05
3.4879e-05
2.81113e-05
2.29205e-05
1.89439e-05
1.60132e-05
1.423e-05
1.34893e-05
3.49898e-05
2.36995e-05
0.00237945
0.00448326
0.000814091
0.000611834
0.000649217
0.000740266
0.00087043
0.00102157
0.00114787
0.00121502
0.00120827
0.00113218
0.000998875
0.00084098
0.000697646
0.000630911
0.000776684
0.000420772
0.000307294
0.000234166
0.000181935
0.000143745
0.000121189
0.00022267
0.000152994
0.000108878
8.02014e-05
6.09714e-05
4.76777e-05
3.825e-05
3.14604e-05
2.66032e-05
2.0184e-05
1.70109e-05
6.66275e-05
3.77048e-05
0.0038201
0.00920041
0.00130414
0.000641611
0.000659694
0.000795843
0.00100676
0.00123122
0.00138726
0.00145193
0.00142731
0.00132804
0.0011629
0.000973894
0.000804287
0.000690547
0.000671907
0.00127585
0.000724277
0.000437011
0.00029318
0.000211393
0.000160913
0.000137655
0.000316471
0.00023889
0.00019195
0.000160365
0.00013609
0.000116198
9.89587e-05
8.28148e-05
6.64604e-05
3.90596e-05
2.60807e-05
0.000114111
5.1061e-05
0.00578098
0.0162309
0.00258909
0.000818416
0.000737289
0.000938488
0.00132002
0.00161459
0.00175767
0.00178151
0.00171331
0.0015671
0.00135653
0.00111257
0.000874517
0.000676668
0.000540025
0.000484632
0.000394773
0.000310992
0.000243394
0.000191428
0.000152732
0.0001273
0.000122826
0.000114098
0.000105353
9.66112e-05
8.73804e-05
7.78336e-05
6.85424e-05
5.98518e-05
5.18653e-05
4.10254e-05
3.16619e-05
8.03924e-05
5.73765e-05
9.26769e-05
0.000158066
0.000221753
0.00847933
0.023922
0.00578371
0.00169049
0.00126236
0.00161053
0.00212184
0.00231451
0.00233193
0.00225764
0.00211625
0.0019014
0.00161616
0.00128932
0.000968132
0.000699221
0.000509682
0.000398399
0.000326775
0.0002682
0.000216642
0.000174314
0.000142401
0.000121388
0.000111478
0.000107239
0.000104465
0.000100826
9.5e-05
8.60013e-05
7.45899e-05
6.3216e-05
5.30029e-05
4.39326e-05
3.85967e-05
5.74938e-05
5.90628e-05
7.13574e-05
0.000295102
0.000255493
0.0114854
0.0284457
0.0116678
0.00536972
0.00400733
0.00399736
0.00378589
0.00349361
0.00320829
0.00294769
0.00267668
0.00234772
0.00194607
0.00150273
0.00107733
0.000732261
0.000498822
0.000364388
0.000287355
0.000232485
0.000187697
0.000153197
0.000129691
0.000116794
0.000113083
0.000114827
0.000118243
0.000121333
0.000122632
0.000120054
0.000109182
9.58239e-05
8.28704e-05
7.18566e-05
6.80405e-05
7.95887e-05
0.000103836
0.000175716
0.000414285
0.000388273
0.0120659
0.0297902
0.0171721
0.0122835
0.00965479
0.00752699
0.0059998
0.00498539
0.00432607
0.00385475
0.00341887
0.00291397
0.00232496
0.00170621
0.00113884
0.000709279
0.000445045
0.000304571
0.000232283
0.000186462
0.000153308
0.000131164
0.000119065
0.000115554
0.000118795
0.000126627
0.000137464
0.000150884
0.000166939
0.000185357
0.000204525
0.000212541
0.000222853
0.000246105
0.000295261
0.0004578
0.000890333
0.00180622
0.00535417
0.00143505
0.0110714
0.0181419
0.0145777
0.0111671
0.00877685
0.00727896
0.00638257
0.00584692
0.00545568
0.00501339
0.00438488
0.00353776
0.00259891
0.0017141
0.000976472
0.000524843
0.000322823
0.000227094
0.000175848
0.000144057
0.000123894
0.000112908
0.00010944
0.000111973
0.000119273
0.000130607
0.000146021
0.000166452
0.000193639
0.000230147
0.000279485
0.000346935
0.00044052
0.00058496
0.000797365
0.00108372
0.00140538
0.00167325
0.001867
0.00112014
0.00372652
0.00657311
0.00842397
0.00890884
0.00889625
0.00842858
0.00744124
0.00604615
0.00445235
0.00280857
0.00169016
0.000979854
0.000556514
0.000335524
0.000229288
0.000175329
0.000144679
0.000125447
0.000113544
0.000107478
0.00010617
0.000108663
0.000114388
0.000123241
0.000135616
0.000152495
0.000175615
0.000207805
0.000253522
0.000318716
0.000410459
0.000537866
0.000703257
0.000886474
0.00103099
0.00106458
0.000934163
0.00058666
0.00371073
0.00847784
0.0084772
0.00702959
0.00608773
0.00510507
0.00402709
0.00296462
0.00201946
0.0012625
0.000767683
0.000475851
0.000315934
0.00023338
0.000190658
0.000166263
0.000150192
0.000138474
0.000129694
0.000123568
0.000120353
0.000120049
0.000122804
0.000129042
0.000139486
0.000155213
0.000177797
0.000209543
0.000253761
0.000315043
0.000399548
0.00051338
0.000656856
0.000820184
0.000941824
0.00104922
0.00080291
0.000608558
0.00266895
0.00318516
0.00359592
0.0045142
0.00400554
0.00356558
0.00322799
0.00277621
0.00223512
0.00168402
0.0011858
0.000791454
0.000522346
0.000356732
0.000258386
0.000199014
0.000161854
0.00013804
0.000123049
0.000114477
0.000110886
0.000111221
0.000114339
0.000119981
0.000128142
0.000139033
0.000153079
0.00017099
0.000193949
0.000223661
0.000261083
0.000308317
0.000367975
0.000443493
0.000538559
0.000684407
0.000730986
0.00067866
0.000551126
0.000433075
)
;

boundaryField
{
    floor
    {
        Cmu             0.09;
        kappa           0.41;
        E               9.8;
        type            epsilonWallFunction;
        value           nonuniform List<scalar> 
29
(
0.000665103
4.82039e-05
8.50931e-05
0.000121103
0.000120196
0.00010862
9.42397e-05
7.77743e-05
6.34176e-05
5.20264e-05
4.31399e-05
3.61737e-05
3.06545e-05
2.6247e-05
2.26701e-05
1.96776e-05
1.70573e-05
1.46089e-05
1.32037e-05
1.01608e-05
1.01608e-05
2.36995e-05
3.77048e-05
5.1061e-05
0.000665103
4.82039e-05
5.79014e-05
0.000420772
0.00127585
)
;
    }
    ceiling
    {
        Cmu             0.09;
        kappa           0.41;
        E               9.8;
        type            epsilonWallFunction;
        value           nonuniform List<scalar> 
43
(
0.00266895
0.00318516
0.00359592
0.0045142
0.00400554
0.00356558
0.00322799
0.00277621
0.00223512
0.00168402
0.0011858
0.000791454
0.000522346
0.000356732
0.000258386
0.000199014
0.000161854
0.00013804
0.000123049
0.000114477
0.000110886
0.000111221
0.000114339
0.000119981
0.000128142
0.000139033
0.000153079
0.00017099
0.000193949
0.000223661
0.000261083
0.000308317
0.000367975
0.000443493
0.000538559
0.000684407
0.000730986
0.00067866
0.000551126
0.000433075
0.0110714
0.0181419
0.00371073
)
;
    }
    sWall
    {
        Cmu             0.09;
        kappa           0.41;
        E               9.8;
        type            epsilonWallFunction;
        value           uniform 0.00266895;
    }
    nWall
    {
        Cmu             0.09;
        kappa           0.41;
        E               9.8;
        type            epsilonWallFunction;
        value           nonuniform List<scalar> 6(0.000221753 0.000255493 0.000388273 0.00058666 0.000608558 0.000433075);
    }
    sideWalls
    {
        type            empty;
    }
    glass1
    {
        Cmu             0.09;
        kappa           0.41;
        E               9.8;
        type            epsilonWallFunction;
        value           nonuniform List<scalar> 9(0.00052139 0.00131428 0.00237945 0.0038201 0.00578098 0.00847933 0.0114854 0.0120659 0.0110714);
    }
    glass2
    {
        Cmu             0.09;
        kappa           0.41;
        E               9.8;
        type            epsilonWallFunction;
        value           nonuniform List<scalar> 2(0.00143505 0.00112014);
    }
    sun
    {
        Cmu             0.09;
        kappa           0.41;
        E               9.8;
        type            epsilonWallFunction;
        value           nonuniform List<scalar> 
14
(
0.00052139
0.000685186
0.000726023
0.000839127
0.000955291
0.00107493
0.00120386
0.00133066
0.00142036
0.00145143
0.00140788
0.0012865
0.00109919
0.000877369
)
;
    }
    heatsource1
    {
        Cmu             0.09;
        kappa           0.41;
        E               9.8;
        type            epsilonWallFunction;
        value           nonuniform List<scalar> 3(9.26769e-05 0.000158066 0.000221753);
    }
    heatsource2
    {
        Cmu             0.09;
        kappa           0.41;
        E               9.8;
        type            epsilonWallFunction;
        value           nonuniform List<scalar> 4(0.000721845 0.000140407 0.000140407 0.000776684);
    }
    Table_master
    {
        Cmu             0.09;
        kappa           0.41;
        E               9.8;
        type            epsilonWallFunction;
        value           nonuniform List<scalar> 9(0.00022267 0.000152994 0.000108878 8.02014e-05 6.09714e-05 4.76777e-05 3.825e-05 3.14604e-05 2.66032e-05);
    }
    Table_slave
    {
        Cmu             0.09;
        kappa           0.41;
        E               9.8;
        type            epsilonWallFunction;
        value           nonuniform List<scalar> 9(0.000316471 0.00023889 0.00019195 0.000160365 0.00013609 0.000116198 9.89587e-05 8.28148e-05 6.64604e-05);
    }
    inlet
    {
        type            turbulentMixingLengthDissipationRateInlet;
        mixingLength    0.01;
        phi             phi;
        k               k;
        value           uniform 0.000101881;
    }
    outlet
    {
        type            zeroGradient;
    }
}


// ************************************************************************* //
