/*--------------------------------*- C++ -*----------------------------------*\
  =========                 |
  \\      /  F ield         | OpenFOAM: The Open Source CFD Toolbox
   \\    /   O peration     | Website:  https://openfoam.org
    \\  /    A nd           | Version:  6
     \\/     M anipulation  |
\*---------------------------------------------------------------------------*/
FoamFile
{
    version     2.0;
    format      ascii;
    class       surfaceScalarField;
    location    "2300";
    object      phi;
}
// * * * * * * * * * * * * * * * * * * * * * * * * * * * * * * * * * * * * * //

dimensions      [1 0 -1 0 0 0 0];

internalField   nonuniform List<scalar> 
852
(
-0.00303972
0.00309948
-0.00412074
0.00108102
-0.00492385
0.000803111
-0.00553702
0.000613172
-0.00592863
0.000391611
-0.00607508
0.000146441
-0.00595547
-0.000119603
-0.00555931
-0.000396161
-0.00491236
-0.000646956
-0.00407932
-0.00083304
-0.00315039
-0.000928922
-0.0022213
-0.000929089
-0.00137651
-0.000844797
-0.000654202
-0.000722306
-0.000652149
-0.000802948
0.000806628
-0.000458198
-0.00034475
0.00021869
-0.000676888
0.00075504
-0.00053635
0.00111479
-0.000359754
0.00134055
-0.000225752
0.00146319
-0.000122641
0.00152305
-5.98655e-05
0.00155628
-3.32264e-05
0.00157636
-2.00803e-05
0.00158735
-1.09957e-05
0.00159067
-3.32078e-06
0.00158446
6.21067e-06
0.00155998
2.44833e-05
0.00149367
6.63103e-05
0.00134612
0.000147552
0.00110439
0.000241725
0.000806746
0.000297647
0.000811722
-0.00216344
0.00542348
-0.00320819
0.00212577
-0.00402926
0.00162418
-0.00463081
0.00121472
-0.00501487
0.000775676
-0.00516649
0.000298062
-0.00506218
-0.000223916
-0.00469777
-0.000760568
-0.00411117
-0.00123356
-0.00337355
-0.00157066
-0.00257122
-0.00173125
-0.00178425
-0.00171606
-0.00108411
-0.00154494
-0.000547942
-0.00125847
-0.000321104
-0.000878987
4.59632e-05
-0.000367119
4.59117e-05
0.000383946
0.000433263
0.000824124
-0.000784929
0.00109444
-0.000947206
0.00132829
-0.0007702
0.00150747
-0.000538934
0.00161559
-0.000333868
0.00163302
-0.000140071
0.00163731
-6.41538e-05
0.00164253
-3.84505e-05
0.00164689
-2.44382e-05
0.00164973
-1.38383e-05
0.00165108
-4.6654e-06
0.00165004
7.24905e-06
0.0016428
3.17181e-05
0.00159872
0.00011039
0.00141116
0.000335115
0.00109053
0.00056236
0.000693636
0.000694537
0.00151799
-0.0015096
0.00717837
-0.00240704
0.0030232
-0.00312996
0.0023471
-0.00363956
0.00172432
-0.0039674
0.00110352
-0.00409276
0.000423421
-0.00397212
-0.000344551
-0.0036044
-0.00112829
-0.00305113
-0.00178683
-0.00239245
-0.00222934
-0.00170809
-0.00241561
-0.0010557
-0.00236845
-0.000482566
-0.00211807
-2.56417e-05
-0.00171539
0.000277173
-0.0011818
0.0004341
-0.000524046
0.000480012
0.00161215
-0.00116763
0.00184366
-0.00101644
0.00180294
-0.000906479
0.00179519
-0.000762457
0.00182016
-0.000563896
0.00184398
-0.000357695
0.00170407
0.00164007
0.00160177
0.00157748
0.0015638
0.00155929
0.00156669
0.00159856
0.00170911
0.00140121
0.000643009
0.0010333
0.000930273
0.000584681
0.00114316
0.00212176
-0.00104944
0.00854525
-0.00175707
0.00373083
-0.00222742
0.00281746
-0.00255083
0.00204772
-0.00274831
0.001301
-0.00277893
0.000454041
-0.00257787
-0.000545614
-0.00217526
-0.00153089
-0.00166347
-0.00229862
-0.00111817
-0.00277465
-0.000597368
-0.00293641
-0.000126061
-0.00283976
0.000281883
-0.00252602
0.000625011
-0.00205852
0.000938541
-0.00149533
0.00131123
-0.000896731
0.0021725
-0.00038126
0.00263494
-0.000452251
0.00220414
-0.000736829
0.00206039
-0.000872694
0.00193707
-0.000783162
0.00183203
-0.000657415
0.001775
-0.00050687
0.00174828
-0.000330971
0.00189108
-0.000142954
0.00198186
-9.09354e-05
0.00205352
-7.18082e-05
0.00210557
-5.22032e-05
0.00212176
-1.63518e-05
0.00207982
4.17859e-05
0.00195497
0.0001247
0.00171469
0.000240123
0.00130229
0.000412252
0.00115075
0.000794547
0.000825306
0.00125572
0.000333062
0.0016354
0.00247977
-0.000731863
0.00965584
-0.00126567
0.00426463
-0.00134845
0.00290024
-0.00138351
0.00208279
-0.00136439
0.00128188
-0.00118349
0.000273137
-0.000817733
-0.000911368
-0.000381399
-0.00196723
3.7676e-05
-0.0027177
0.000393981
-0.00313095
0.000676711
-0.00321914
0.000891275
-0.00305432
0.00105962
-0.00269436
0.00120696
-0.00220586
0.0013664
-0.00165477
0.0015852
-0.00111554
0.0019036
-0.00069966
0.00202494
-0.000573588
0.00192491
-0.000636795
0.00173401
-0.000681792
0.00157312
-0.000622274
0.00144214
-0.000526441
0.00135362
-0.00041835
0.00132252
-0.000299867
0.00137671
-0.000197149
0.0014384
-0.000152625
0.00150288
-0.000136285
0.00156496
-0.000114279
0.00161158
-6.29757e-05
0.00162132
3.20428e-05
0.00157403
0.000171996
0.00145911
0.00035504
0.0012791
0.000592262
0.00111892
0.00095473
0.000942532
0.0014321
0.000541478
0.00203645
0.000414284
0.00260697
-0.00111771
0.00153179
-0.00158052
0.000462613
-0.00152654
-0.000635087
0.0107214
-0.000993806
0.00462335
-0.000534393
0.00244082
-9.95998e-05
0.001648
0.000289584
0.000892693
0.000799111
-0.000236389
0.00132435
-0.00143661
0.00170866
-0.00235154
0.00193015
-0.00293919
0.00200927
-0.00321007
0.0019876
-0.00319747
0.00189448
-0.0029612
0.00176727
-0.00256716
0.00164301
-0.0020816
0.00155294
-0.0015647
0.00151885
-0.00108145
0.00153061
-0.000711414
0.00148571
-0.000528686
0.00134271
-0.000493795
0.00114617
-0.000485253
0.000971631
-0.000447737
0.000838157
-0.000392967
0.000753447
-0.000333641
0.000727274
-0.000273694
0.000758391
-0.000228265
0.000819175
-0.00021341
0.000895678
-0.000212787
0.000981503
-0.000200105
0.00106946
-0.000150936
0.00114312
-4.16142e-05
0.00118395
0.000131164
0.00119327
0.000345725
0.00117938
0.000606155
0.00119255
0.000941556
0.00128622
0.00133843
0.00146768
0.00185499
0.00195914
0.00211551
0.00223914
0.00125179
0.00184931
0.000852437
0.000387457
-0.000662353
0.0118614
-0.000515036
0.00447604
0.000717564
0.00120822
0.0016416
0.000723965
0.00249754
3.67481e-05
0.00328833
-0.00102718
0.00377366
-0.00192194
0.00395187
-0.00252975
0.00386824
-0.00285555
0.00358657
-0.0029284
0.00317823
-0.00278912
0.00270664
-0.00248961
0.00222935
-0.00208988
0.00179354
-0.00164579
0.00142853
-0.00119968
0.00114771
-0.000800628
0.000943011
-0.000506716
0.000766411
-0.000352087
0.000580185
-0.000307569
0.00039557
-0.000300638
0.000240277
-0.000292444
0.000127029
-0.000279719
5.99138e-05
-0.000266526
4.20713e-05
-0.000255852
6.84329e-05
-0.000254627
0.000122792
-0.000267769
0.000194119
-0.000284115
0.000280766
-0.000286751
0.000386924
-0.000257094
0.00051712
-0.00017181
0.000650827
-2.54351e-06
0.000778502
0.00021805
0.000918328
0.000466329
0.00111005
0.000749831
0.00140694
0.00104154
0.00188327
0.00137867
0.00262207
0.00137671
0.0032185
0.000655359
0.00328369
0.000787243
0.00374057
0.00276898
0.00962736
0.00354919
0.00369582
0.00417331
0.00058411
0.00517945
-0.000282175
0.00610442
-0.000888226
0.0065666
-0.00148936
0.00658623
-0.00194157
0.00623519
-0.00217871
0.00560294
-0.0022233
0.00478918
-0.00211464
0.00389259
-0.00189254
0.00299581
-0.00159283
0.00216545
-0.00125952
0.00144827
-0.000928614
0.000863968
-0.000615376
0.000420967
-0.000357627
0.000111131
-0.00019688
-0.000107888
-0.000133068
-0.00028119
-0.000134266
-0.000425589
-0.00015624
-0.000540622
-0.000177411
-0.000624503
-0.000195838
-0.000677575
-0.000213453
-0.000701076
-0.000232352
-0.000700379
-0.000255323
-0.000685662
-0.000282486
-0.000662866
-0.00030691
-0.000630581
-0.000319037
-0.000579006
-0.000308669
-0.000487183
-0.000263634
-0.000324173
-0.000165553
-0.000120465
1.43421e-05
0.000107666
0.000238198
0.000390207
0.00046729
0.000734287
0.00069746
0.00119191
0.000921044
0.00167719
0.000891429
0.00181455
0.000517993
0.000978724
0.00162307
0.00501241
0.0102199
0.0139118
0.0129779
0.00151797
0.0123567
0.000339075
0.0116031
-0.000134622
0.0105623
-0.000448562
0.00925326
-0.000632539
0.00778835
-0.000713806
0.00626893
-0.000703872
0.00478229
-0.000628002
0.00340722
-0.00051747
0.00219367
-0.000379278
0.00117496
-0.00024081
0.000359764
-0.000113417
-0.000244349
-1.1263e-05
-0.000637004
3.50276e-05
-0.000868822
3.49378e-05
-0.00101596
1.40699e-05
-0.00113037
-1.98572e-05
-0.0012293
-5.73077e-05
-0.00131516
-9.15479e-05
-0.00138843
-0.000122571
-0.00145115
-0.000150736
-0.00150672
-0.00017678
-0.00156103
-0.000201017
-0.00162223
-0.000221286
-0.00169781
-0.000231327
-0.00179515
-0.000221693
-0.00192349
-0.000180326
-0.00209489
-9.22415e-05
-0.00231613
5.56882e-05
-0.00257323
0.000271449
-0.00290897
0.000573934
-0.00342399
0.000982312
-0.00421571
0.00148918
-0.0053395
0.00204484
-0.00690333
0.00245526
-0.00875772
0.00237238
-0.00813109
0.000996445
-0.00279306
0.00437389
0.00337988
0.00335837
0.00135459
0.00365098
-0.000427229
0.00359015
-0.000387735
0.00313336
-0.000175753
0.00244853
-2.89707e-05
0.00164787
9.67892e-05
0.000824776
0.000195089
5.46084e-05
0.000252697
-0.000592591
0.000267922
-0.00107818
0.000244779
-0.00140868
0.000217083
-0.00160412
0.000184175
-0.00171247
0.000143383
-0.00178063
0.000103095
-0.00183398
6.74163e-05
-0.00188911
3.52731e-05
-0.00195237
5.95685e-06
-0.0020217
-2.2219e-05
-0.00209417
-5.00991e-05
-0.00217149
-7.34206e-05
-0.00225658
-9.16879e-05
-0.00235292
-0.000104678
-0.00246332
-0.000110888
-0.00258798
-0.000106664
-0.00272346
-8.62145e-05
-0.0028611
-4.269e-05
-0.00298601
3.2668e-05
-0.00309026
0.000159937
-0.00317836
0.000359549
-0.00326096
0.000656537
-0.0033501
0.00107145
-0.00344958
0.00158867
-0.00350061
0.00209586
-0.00341239
0.00236704
-0.00298757
0.00194757
-0.00165945
-0.000331677
-0.0043677
-0.000794383
0.00425861
-0.00034831
0.000908517
-0.00102407
0.00024853
-0.00154165
0.000129845
-0.0018928
0.000175403
-0.00215421
0.000232434
-0.00234032
0.000282903
-0.00246961
0.000324375
-0.00255372
0.000336811
-0.0025985
0.000312701
-0.002616
0.000262275
-0.00260589
0.000206972
-0.00257635
0.000154637
-0.00254193
0.000108966
-0.00251259
7.37539e-05
-0.00249323
4.8054e-05
-0.00248642
2.84657e-05
-0.00249263
1.21665e-05
-0.00250982
-5.03395e-06
-0.00253812
-2.17982e-05
-0.00257662
-3.49199e-05
-0.00262444
-4.38646e-05
-0.00268052
-4.86013e-05
-0.00274302
-4.83907e-05
-0.00280831
-4.13706e-05
-0.00287015
-2.43738e-05
-0.00291973
6.88771e-06
-0.00294196
5.48967e-05
-0.00291368
0.000131658
-0.0028079
0.000253774
-0.00258929
0.000437926
-0.00222921
0.00071137
-0.00173015
0.00108961
-0.00107563
0.00144134
-4.50823e-05
0.00133649
0.00127603
0.000626457
0.00159548
-0.000651127
-0.00267887
-0.00789025
-0.0111488
-0.00683494
-0.00589829
-0.00563058
-0.00548531
-0.00529684
-0.00505298
-0.0047598
-0.0044259
-0.00407996
-0.00375822
-0.00348676
-0.00327033
-0.00310593
-0.00298691
-0.00290284
-0.00284423
-0.00280503
-0.00278201
-0.00277613
-0.00278703
-0.00281112
-0.00284425
-0.00288227
-0.00292025
-0.00295143
-0.00296584
-0.00294926
-0.00288497
-0.00274425
-0.00248176
-0.0020355
-0.0013162
-0.000219107
0.00122909
0.00257213
0.0032051
0.00256075
)
;

boundaryField
{
    floor
    {
        type            calculated;
        value           nonuniform List<scalar> 
29
(
0
0
0
0
0
0
0
0
0
0
0
0
0
0
0
0
0
0
0
0
-4.97689e-06
-1.26333e-05
-1.90845e-05
-2.49511e-05
-2.05302e-06
-3.67963e-06
-1.05811e-05
-1.12536e-05
-1.01901e-05
)
;
    }
    ceiling
    {
        type            calculated;
        value           nonuniform List<scalar> 
43
(
-5.92658e-05
-5.70401e-05
-5.52545e-05
-2.81323e-05
-1.91885e-05
-1.54182e-05
-1.30733e-05
-1.14224e-05
-1.0278e-05
-9.52847e-06
-9.12481e-06
-9.03598e-06
-9.18678e-06
-9.45737e-06
-9.75985e-06
-1.0053e-05
-1.03208e-05
-1.05526e-05
-1.07356e-05
-1.0857e-05
-1.09098e-05
-1.0897e-05
-1.08344e-05
-1.07285e-05
-1.05848e-05
-1.04071e-05
-1.01984e-05
-9.9603e-06
-9.69217e-06
-9.39184e-06
-9.06539e-06
-8.71301e-06
-8.33462e-06
-7.92826e-06
-7.4894e-06
-6.85673e-06
-6.54774e-06
-6.51595e-06
-6.77382e-06
-6.41647e-06
6.36406e-06
3.93107e-06
-8.43458e-05
)
;
    }
    sWall
    {
        type            calculated;
        value           uniform -0.000279422;
    }
    nWall
    {
        type            calculated;
        value           nonuniform List<scalar> 6(-5.41894e-05 -6.46849e-05 -6.94169e-05 -8.481e-05 -9.33478e-05 -0.000111712);
    }
    sideWalls
    {
        type            empty;
        value           nonuniform 0();
    }
    glass1
    {
        type            calculated;
        value           nonuniform List<scalar> 9(-5.97619e-05 -0.000160555 -0.000245292 -0.000317437 -0.000378725 -0.000430451 -0.000477678 -0.000534929 -0.000598914);
    }
    glass2
    {
        type            calculated;
        value           nonuniform List<scalar> 2(-0.000293119 -0.000325622);
    }
    sun
    {
        type            calculated;
        value           uniform 0;
    }
    heatsource1
    {
        type            calculated;
        value           nonuniform List<scalar> 3(2.05023e-07 2.04919e-07 2.04938e-07);
    }
    heatsource2
    {
        type            calculated;
        value           nonuniform List<scalar> 4(5.14155e-08 5.15246e-08 0 0);
    }
    Table_master
    {
        type            calculated;
        value           nonuniform List<scalar> 9(-1.53767e-07 -1.5386e-07 -1.53893e-07 -1.53915e-07 -1.5393e-07 -1.5394e-07 -1.53944e-07 -1.53938e-07 -1.53903e-07);
    }
    Table_slave
    {
        type            calculated;
        value           nonuniform List<scalar> 9(1.53625e-07 1.53647e-07 1.53624e-07 1.53606e-07 1.53602e-07 1.53605e-07 1.53625e-07 1.53675e-07 1.53766e-07);
    }
    inlet
    {
        type            calculated;
        value           uniform -0.0062358;
    }
    outlet
    {
        type            calculated;
        value           nonuniform List<scalar> 2(0.00822894 0.0033156);
    }
}


// ************************************************************************* //
