/*--------------------------------*- C++ -*----------------------------------*=========                 |
  \      /  F ield         | OpenFOAM: The Open Source CFD Toolbox
   \    /   O peration     | Website:  https://openfoam.org
    \  /    A nd           | Version:  6
     \/     M anipulation  |
\*---------------------------------------------------------------------------*/
FoamFile
{
    version     2.0;
    format      ascii;
    class       volScalarField;
    location    "2300";
    object      PMV;
}
// * * * * * * * * * * * * * * * * * * * * * * * * * * * * * * * * * * * * * //

dimensions      [0 0 0 0 0 0 0];

internalField   nonuniform List<scalar> 
459
(
1.6590905105113112
1.4434928951714308
1.4173625292097303
1.3944600811100871
1.3790140163964315
1.3695887268039768
1.3668363083113866
1.370620436550037
1.3802231476576967
1.396761084054769
1.422193938721426
1.4575570397584523
1.5044064769364984
1.5418962705973362
1.5461956966943922
1.6101915618663556
1.597299165960047
1.592523863012463
1.594434006093675
1.596821643892709
1.5996867487308861
1.5976805035141075
1.5932391008193907
1.5926022329393346
1.5934448920667743
1.5948559562572808
1.596708382107623
1.5991142214170417
1.6024356108158286
1.6076744107487553
1.6170488673542953
1.62642446967516
1.629766261260052
1.6417004399251063
1.622231274780441
1.4645164006924198
1.4563796813148753
1.4356045486314564
1.422897791016076
1.415478858140084
1.4136244236417772
1.4155489266784902
1.4199982343427864
1.4282034941993984
1.4427328744598684
1.4661237361730812
1.5001377118070076
1.5332970248786424
1.534252522304053
1.534252522304053
1.5337747743888979
1.574638595114368
1.5877483784213473
1.5844054321295173
1.5851103000317164
1.5792268883874905
1.5747980425393298
1.5733030920829842
1.5743083743953794
1.5754245114135415
1.5762103253099349
1.576366008011748
1.5770732523169964
1.577935062729365
1.5790083291554236
1.5815236709183709
1.5891784133644065
1.6078041837831283
1.6135338118935103
1.6055675957840962
1.6643856121323362
1.4675144992826064
1.4922343390934603
1.4823002285942521
1.4797968244358914
1.4794410074365205
1.48087223845021
1.4811526408425673
1.4768166604680986
1.469774563953126
1.4664042098086094
1.4718390454361687
1.4893619610177673
1.520088425347058
1.5309082534612688
1.5332970248786424
1.5347302686223756
1.483357017516699
1.5235980880507414
1.5357975740050553
1.54525436080504
1.5548083279083846
1.5611941628241592
1.5645902098036644
1.5725940401568055
1.578187013236595
1.5812125369188907
1.5823198616259226
1.5828627144185252
1.5832976234667073
1.581891511897106
1.5775473244198426
1.5793683800637897
1.596758578051562
1.5895958410551034
1.5441257378931814
1.7398945153067564
1.4736713073009855
1.5200168555646596
1.5301433598704948
1.5475755729426315
1.563531428777216
1.57540947689773
1.5709292060746285
1.545175704446028
1.5088376650107704
1.477970402912013
1.4618892872341334
1.4644392313341295
1.4849168830834312
1.5156711010763
1.534252522304053
1.518938688095162
1.4785779957302692
1.4771347457784245
1.504290243032206
1.5302387867748721
1.5518960177644523
1.5700160944637362
1.5835353730676422
1.5883008197639703
1.586790146402424
1.5857813507909693
1.5864249435076057
1.587811883144573
1.5911905317993356
1.5979266382556072
1.6095442123685526
1.63176708177394
1.6256560044195798
1.6112887900024253
1.5694517381691957
1.5007847615236798
1.8298232313567133
1.49444815441401
1.5470445668392836
1.575945141351642
1.6235890076802324
1.677904023459692
1.7023059353054557
1.6566660682172392
1.5856741630120816
1.5163609008799819
1.466633490175194
1.439179633242958
1.435038549966509
1.4517001499578206
1.4799893045329915
1.5067840270119857
1.5134030936322398
1.5106298027112388
1.5191495750632875
1.5432233603113457
1.5727845136198848
1.5996083946670048
1.6219728463536363
1.6384617200828209
1.648071948902187
1.6501681131472756
1.650249397836731
1.649923299526219
1.648494070540143
1.6469540408629373
1.646329253391268
1.6473064548154241
1.6491437071891197
1.6358070625836827
1.6101529779071404
1.55163450225196
1.545685808993277
1.6746321382721436
1.6612973627195182
1.4993942165640657
1.9193630660694523
1.5368866099838676
1.6000111810602404
1.6293125620378353
1.6980122179766566
1.7266334610170033
1.7156752987758035
1.636281808863274
1.5589414630571767
1.4879024899111317
1.434518709101178
1.4068309596112194
1.4068266392665314
1.4294555147002712
1.4662757860780193
1.5063770447453315
1.5372262650335289
1.5589536823203476
1.5827988573319074
1.6131537597902261
1.6321531962991476
1.6464737603304571
1.6584061660819691
1.6674739237461773
1.6751093353902693
1.680835531735688
1.6851299726917783
1.6879928342284019
1.6894242350933357
1.6879928342284019
1.684652821374571
1.6798811874313624
1.671183696225054
1.6459615340467901
1.6121316785844482
1.550935249730489
1.5484995400326254
1.564555667055801
1.5638316193682018
1.5759167544808892
2.0092538035342677
1.6325168745620735
1.7509110174168687
1.7249377011907416
1.7215354315140976
1.6956904454471287
1.6426880310589929
1.5701631715782685
1.4910799444526044
1.4225803308783964
1.3784417188494953
1.365480757781444
1.383295886107746
1.4244962772170848
1.4810658925511437
1.542430002598031
1.5848830012546402
1.608281663161379
1.629766261260052
1.6483830315929575
1.6646105035801406
1.6774952885407144
1.6870385558954923
1.694672533268591
1.7003976392201168
1.7042141948752063
1.70707651545607
1.7080306039062818
1.7075535608343764
1.704691254045674
1.6989663932770191
1.6922869767267037
1.683698512135618
1.6722551901422653
1.6320038446492906
1.5750535684475175
1.5532826225948904
1.5427035526469524
1.5171572338876396
1.6014496295958867
2.141571307424818
1.9509537805458306
1.9063083451124532
1.8071826990756916
1.7486068192540722
1.6666618370946804
1.5631390579312474
1.456392130314727
1.368343559094213
1.3140834346058592
1.3002591522465399
1.3250430322592097
1.3805455115889897
1.4561223820857214
1.5452908120782107
1.5891810427599578
1.621650315896779
1.647905716838635
1.6684283801461006
1.6841756678551345
1.696580938062314
1.7056453655047927
1.7128009072864638
1.7175709775873707
1.7209098869209594
1.722817783046783
1.723771716851644
1.722817783046783
1.7209098869209594
1.7180479717122816
1.7128009072864638
1.70516831092293
1.69705803362605
1.6875156961694784
1.6770181022429769
1.666042223203728
1.645724329615739
1.6343294158768087
1.5742903206313144
1.490798017511457
2.338196519059812
2.2064524588260483
2.040397274537831
1.8601541532746952
1.6529323257125499
1.437890476270307
1.2680243777260154
1.1637804494515462
1.1290817733618994
1.1562115060915144
1.2298697753982513
1.3357915163520566
1.4571994615695234
1.5418962705973362
1.596821643892709
1.6412230967631924
1.669382828023934
1.6889471036924621
1.7037371334137816
1.7147089635009878
1.722817783046783
1.7246864900061194
1.7233728048033803
1.721954613737959
1.7190841813439635
1.7156458983889407
1.7107660850470061
1.7041940798838133
1.6966031040839515
1.6870013334790441
1.6754847726051356
1.663380495408426
1.6521751053775946
1.6379272627774377
1.6223360872248112
1.6086188344830497
1.5990784090681256
1.594455497393306
1.5833735683586196
1.553581041779771
-2.974784752155766
-1.8306382947763882
-1.135006175818802
-0.38967133210374766
0.16992048805325122
0.603082368626689
0.9539571382266024
1.2172314116415774
1.379866156252208
1.5051070421045694
1.5796296430209862
1.630721041188452
1.6526860821049483
1.668907474054428
1.6814475782108733
1.6898103594045122
1.6955798099501918
1.6981855167408182
1.6989964101218642
1.6978648714026354
1.6957966459973317
1.6931287718972137
1.689207117641073
1.6843735319748028
1.6790975261108032
1.6735099084872727
1.6683613943189786
1.6630167940874176
1.659350597296447
1.656761014228977
1.655129372941294
1.6541515918095693
1.653368556056556
1.6554835091649829
1.666044268521531
1.700872317812947
1.7718838527230545
1.616770250975718
-2.466652175839279
-0.9989484566569675
0.04378677358768738
0.5754195675454031
0.9007427853226702
1.1037839453216944
1.257644459754459
1.3760293545978655
1.4682439986064464
1.5365157730285368
1.5830081091859756
1.6152498321825113
1.6387003623185146
1.6547013462044209
1.6655147151388598
1.6733373571494425
1.6776928075380901
1.6806950416859543
1.6821683111827266
1.6830357404194982
1.683111051642184
1.6823535469323878
1.6812526412989777
1.6793439192567614
1.6776909117054042
1.6759577112017234
1.6744099643114874
1.6735081455308962
1.6738436832085368
1.6773073144894437
1.6847652497388153
1.6961739643879263
1.708215975146958
1.718442691410334
1.72986484522311
1.7681841239165812
1.70354611933187
1.654562017381551
-0.8574123517945401
-0.9965071563577605
-0.8765698768567691
0.3727810130338515
0.8866838350257863
1.1028614977629634
1.2364419813905165
1.3390377086270668
1.4219371943171164
1.4892562244075098
1.5435369943304154
1.5853402264749163
1.6152080245204625
1.6356860229751269
1.648728039135406
1.6565857492299905
1.66037334765384
1.6618399532270343
1.6616386535378325
1.6617714510270052
1.661004826195264
1.661357859191325
1.661020586575232
1.6614706655934155
1.6621864096898373
1.6626942558905096
1.6636140445358947
1.6656868237252656
1.6682954996015753
1.6729388862212917
1.6798167422256527
1.6916779186708473
1.7123653849756313
1.7502602602060406
1.7786062980746398
1.78480285016537
1.7517589771299806
1.7100516870049929
1.6685571588077999
1.6730749439294994
)
;

boundaryField
{
    ".*"
    {
        type            zeroGradient;
    }
}


// ************************************************************************* //
