// -*- C++ -*-
// File generated by PyFoam - sorry for the ugliness

FoamFile
{
 version 2.0;
 format ascii;
 class volScalarField;
 location "2300";
 object T;
}

dimensions [ 0 0 0 1 0 0 0 ];

internalField nonuniform List<scalar> 459
(
  302.684
  302.404
  302.389
  302.385
  302.381
  302.376
  302.371
  302.365
  302.356
  302.345
  302.335
  302.327
  302.323
  302.324
  302.333
  302.467
  302.44
  302.43
  302.434
  302.439
  302.445
  302.45
  302.455
  302.46
  302.465
  302.47
  302.475
  302.48
  302.485
  302.49
  302.495
  302.501
  302.508
  302.533
  302.87
  302.445
  302.417
  302.418
  302.419
  302.418
  302.415
  302.406
  302.389
  302.366
  302.342
  302.322
  302.31
  302.306
  302.308
  302.308
  302.307
  302.47
  302.42
  302.413
  302.416
  302.423
  302.429
  302.432
  302.435
  302.437
  302.439
  302.44
  302.442
  302.444
  302.446
  302.449
  302.454
  302.462
  302.474
  302.514
  303.064
  302.498
  302.452
  302.459
  302.471
  302.48
  302.482
  302.471
  302.443
  302.402
  302.36
  302.326
  302.305
  302.299
  302.301
  302.306
  302.309
  302.396
  302.393
  302.401
  302.416
  302.43
  302.44
  302.44
  302.44
  302.44
  302.441
  302.441
  302.441
  302.442
  302.442
  302.443
  302.447
  302.452
  302.463
  302.506
  303.26
  302.566
  302.49
  302.503
  302.529
  302.554
  302.568
  302.556
  302.511
  302.444
  302.378
  302.328
  302.299
  302.292
  302.297
  302.308
  302.317
  302.334
  302.354
  302.381
  302.409
  302.436
  302.458
  302.475
  302.489
  302.501
  302.511
  302.52
  302.527
  302.533
  302.538
  302.541
  302.542
  302.51
  302.484
  302.473
  302.508
  303.452
  302.653
  302.538
  302.546
  302.584
  302.628
  302.66
  302.64
  302.571
  302.473
  302.386
  302.323
  302.289
  302.283
  302.294
  302.314
  302.335
  302.36
  302.389
  302.421
  302.454
  302.484
  302.509
  302.529
  302.547
  302.561
  302.572
  302.581
  302.586
  302.588
  302.586
  302.581
  302.572
  302.548
  302.515
  302.489
  302.505
  302.602
  302.647
  302.653
  303.625
  302.766
  302.624
  302.611
  302.651
  302.711
  302.736
  302.688
  302.591
  302.476
  302.373
  302.302
  302.27
  302.271
  302.294
  302.328
  302.364
  302.401
  302.439
  302.477
  302.513
  302.543
  302.568
  302.587
  302.603
  302.615
  302.624
  302.63
  302.633
  302.63
  302.623
  302.613
  302.598
  302.575
  302.542
  302.51
  302.507
  302.548
  302.568
  302.609
  303.788
  302.947
  302.809
  302.784
  302.801
  302.835
  302.796
  302.692
  302.554
  302.418
  302.312
  302.251
  302.237
  302.259
  302.305
  302.36
  302.414
  302.463
  302.508
  302.547
  302.581
  302.608
  302.628
  302.644
  302.656
  302.664
  302.67
  302.672
  302.671
  302.665
  302.653
  302.639
  302.621
  302.599
  302.569
  302.538
  302.525
  302.536
  302.549
  302.583
  304.021
  303.396
  303.247
  303.167
  303.098
  302.967
  302.784
  302.581
  302.397
  302.26
  302.184
  302.168
  302.2
  302.262
  302.342
  302.423
  302.491
  302.546
  302.589
  302.622
  302.648
  302.667
  302.682
  302.692
  302.699
  302.703
  302.705
  302.703
  302.699
  302.693
  302.682
  302.666
  302.649
  302.629
  302.607
  302.584
  302.578
  302.598
  302.625
  302.777
  304.356
  304.06
  303.763
  303.451
  303.076
  302.67
  302.331
  302.096
  301.972
  301.947
  301.996
  302.094
  302.208
  302.324
  302.439
  302.532
  302.591
  302.632
  302.663
  302.686
  302.703
  302.716
  302.724
  302.73
  302.732
  302.733
  302.732
  302.729
  302.726
  302.722
  302.719
  302.719
  302.722
  302.731
  302.75
  302.78
  302.821
  302.863
  302.888
  302.952
  293.359
  295.259
  297.235
  298.707
  299.775
  300.577
  301.187
  301.645
  301.985
  302.247
  302.403
  302.51
  302.588
  302.642
  302.679
  302.704
  302.723
  302.736
  302.746
  302.752
  302.756
  302.759
  302.76
  302.76
  302.76
  302.76
  302.761
  302.761
  302.763
  302.766
  302.772
  302.783
  302.8
  302.825
  302.855
  302.883
  302.904
  302.927
  294.55
  297.002
  299.192
  300.304
  301.009
  301.504
  301.861
  302.129
  302.333
  302.481
  302.579
  302.645
  302.691
  302.721
  302.741
  302.756
  302.765
  302.772
  302.776
  302.779
  302.781
  302.782
  302.783
  302.783
  302.784
  302.785
  302.786
  302.787
  302.788
  302.791
  302.796
  302.804
  302.816
  302.833
  302.853
  302.876
  302.875
  302.907
  298.284
  298.208
  298.202
  300.521
  301.446
  301.844
  302.089
  302.274
  302.419
  302.532
  302.619
  302.683
  302.727
  302.757
  302.777
  302.791
  302.8
  302.806
  302.809
  302.812
  302.812
  302.813
  302.812
  302.812
  302.812
  302.811
  302.81
  302.81
  302.809
  302.809
  302.809
  302.81
  302.811
  302.814
  302.82
  302.833
  302.844
  302.852
  302.856
  302.895
)
;

boundaryField
{
  floor
  {
    type wallHeatTransfer;
    Tinf uniform 305.2;
    alphaWall uniform 0.24;
    value nonuniform List<scalar> 29
(
  302.606
  302.957
  302.875
  302.832
  302.836
  302.85
  302.868
  302.892
  302.918
  302.943
  302.968
  302.992
  303.015
  303.037
  303.058
  303.079
  303.101
  303.125
  303.144
  303.196
  303.196
  303.076
  303.016
  302.984
  302.606
  302.957
  302.939
  302.696
  302.564
)
;
  }
  ceiling
  {
    type wallHeatTransfer;
    Tinf uniform 303.2;
    alphaWall uniform 0.24;
    value nonuniform List<scalar> 43
(
  298.605
  298.519
  298.503
  300.674
  301.55
  301.927
  302.158
  302.334
  302.473
  302.582
  302.667
  302.73
  302.775
  302.806
  302.828
  302.844
  302.854
  302.861
  302.866
  302.869
  302.87
  302.87
  302.869
  302.868
  302.867
  302.866
  302.864
  302.862
  302.86
  302.858
  302.856
  302.855
  302.854
  302.855
  302.858
  302.868
  302.877
  302.885
  302.89
  302.928
  304.304
  304.026
  295.062
)
;
  }
  sWall
  {
    type wallHeatTransfer;
    Tinf uniform 315.2;
    alphaWall uniform 0.36;
    value uniform 299.895;
  }
  nWall
  {
    type wallHeatTransfer;
    Tinf uniform 307.2;
    alphaWall uniform 0.36;
    value nonuniform List<scalar> 6
(
  303.459
  303.396
  303.301
  303.528
  303.506
  303.548
)
;
  }
  sideWalls
  {
    type empty;
  }
  glass1
  {
    type wallHeatTransfer;
    Tinf uniform 315.2;
    alphaWall uniform 4.3;
    value nonuniform List<scalar> 9
(
  311.118
  310.432
  310.006
  309.686
  309.421
  309.183
  309.015
  309.102
  309.355
)
;
  }
  glass2
  {
    type wallHeatTransfer;
    Tinf uniform 307.2;
    alphaWall uniform 4.3;
    value nonuniform List<scalar> 2
(
  305.449
  305.59
)
;
  }
  sun
  {
    type wallHeatTransfer;
    Tinf uniform 305.2;
    alphaWall uniform 0.24;
    value nonuniform List<scalar> 14
(
  302.939
  302.668
  302.651
  302.637
  302.625
  302.613
  302.602
  302.59
  302.578
  302.567
  302.559
  302.557
  302.563
  302.579
)
;
  }
  heatsource1
  {
    type fixedGradient;
    gradient uniform 0;
  }
  heatsource2
  {
    type fixedGradient;
    gradient uniform 0;
  }
  Table_master
  {
    type zeroGradient;
  }
  Table_slave
  {
    type zeroGradient;
  }
  inlet
  {
    type fixedValue;
    value uniform 290.15;
  }
  outlet
  {
    type zeroGradient;
  }
} 	// ************************************************************************* //

