// -*- C++ -*-
// File generated by PyFoam - sorry for the ugliness

FoamFile
{
 version 2.0;
 format ascii;
 class volVectorField;
 location "2300";
 object U;
}

dimensions [ 0 1 -1 0 0 0 0 ];

internalField nonuniform List<vector> 459
(
  (0.0332877 0.0882271 0)
  (-0.171659 0.0264936 0)
  (-0.196868 0.0178754 0)
  (-0.227596 0.0118994 0)
  (-0.249232 0.00536364 0)
  (-0.260814 -0.00147069 0)
  (-0.260894 -0.00861154 0)
  (-0.248818 -0.0160196 0)
  (-0.225524 -0.0229543 0)
  (-0.193057 -0.0283208 0)
  (-0.154851 -0.0312932 0)
  (-0.114668 -0.0315877 0)
  (-0.0760655 -0.0295556 0)
  (-0.0440909 -0.0266223 0)
  (-0.0338008 -0.0245638 0)
  (-0.00295214 0.00867964 0)
  (-0.0279322 -0.0196262 0)
  (-0.0022114 -0.0296147 0)
  (0.0221608 -0.0220892 0)
  (0.0395958 -0.0149242 0)
  (0.0528171 -0.00956589 0)
  (0.0607725 -0.00569042 0)
  (0.064763 -0.00366123 0)
  (0.0665421 -0.00279397 0)
  (0.0674424 -0.00237873 0)
  (0.0680032 -0.00210761 0)
  (0.0682985 -0.00188482 0)
  (0.0682592 -0.0016176 0)
  (0.0676677 -0.00112547 0)
  (0.0659315 -1.01074e-05 0)
  (0.0617916 0.00228305 0)
  (0.0538857 0.00468698 0)
  (0.0466637 0.00664901 0)
  (-0.0142622 0.0229696 0)
  (0.209592 0.18025 0)
  (-0.158698 0.0697056 0)
  (-0.157355 0.0529761 0)
  (-0.188768 0.0403773 0)
  (-0.20998 0.026248 0)
  (-0.221645 0.0106572 0)
  (-0.222266 -0.00648653 0)
  (-0.211173 -0.0242878 0)
  (-0.189877 -0.0403057 0)
  (-0.160743 -0.0521158 0)
  (-0.127238 -0.0581701 0)
  (-0.0928097 -0.0582056 0)
  (-0.0605922 -0.052826 0)
  (-0.0340067 -0.0435803 0)
  (-0.0173273 -0.0323109 0)
  (-0.0036643 -0.0142976 0)
  (-0.00409905 0.0171634 0)
  (0.0724075 0.0364825 0)
  (0.0316604 -0.0207705 0)
  (0.0394387 -0.034081 0)
  (0.051535 -0.0294305 0)
  (0.0610263 -0.0205468 0)
  (0.0675058 -0.0122717 0)
  (0.0701788 -0.00509275 0)
  (0.0705969 -0.00110309 0)
  (0.0704916 0.000566961 0)
  (0.0705726 0.00131259 0)
  (0.0707542 0.00176512 0)
  (0.0708837 0.00214503 0)
  (0.0709121 0.00263439 0)
  (0.0707841 0.00359579 0)
  (0.0699338 0.00598938 0)
  (0.0657738 0.0126357 0)
  (0.0553266 0.0181633 0)
  (0.0506027 0.0218273 0)
  (-0.0553193 0.049501 0)
  (0.370741 0.269195 0)
  (-0.173707 0.1104 0)
  (-0.117623 0.0852007 0)
  (-0.147481 0.0629673 0)
  (-0.165961 0.039827 0)
  (-0.176253 0.0146476 0)
  (-0.175847 -0.0129847 0)
  (-0.163914 -0.0411404 0)
  (-0.143125 -0.0655148 0)
  (-0.116454 -0.0824649 0)
  (-0.0874078 -0.0901346 0)
  (-0.0586724 -0.0888393 0)
  (-0.0322925 -0.0796803 0)
  (-0.0103532 -0.0645063 0)
  (0.00608294 -0.0438166 0)
  (0.0174167 -0.0182517 0)
  (0.0232905 0.0186153 0)
  (0.120513 -0.0375537 0)
  (0.0795352 -0.0449696 0)
  (0.0738548 -0.0427889 0)
  (0.0759562 -0.0352161 0)
  (0.0775891 -0.0256232 0)
  (0.078697 -0.0173217 0)
  (0.0770799 -0.0137858 0)
  (0.0724859 -0.00965174 0)
  (0.0692681 -0.0073997 0)
  (0.067844 -0.00610627 0)
  (0.0672514 -0.00527559 0)
  (0.0669719 -0.00469206 0)
  (0.0670259 -0.00414533 0)
  (0.067913 -0.00324878 0)
  (0.0709119 7.54577e-05 0)
  (0.0685672 0.0182002 0)
  (0.0538892 0.0307943 0)
  (0.0572007 0.0390307 0)
  (-0.0919927 0.0766762 0)
  (0.515527 0.340487 0)
  (-0.206613 0.146306 0)
  (-0.0764422 0.112242 0)
  (-0.103681 0.0816969 0)
  (-0.116373 0.0517218 0)
  (-0.122348 0.0183565 0)
  (-0.117214 -0.0196675 0)
  (-0.102161 -0.058117 0)
  (-0.0815337 -0.0895139 0)
  (-0.0584432 -0.109824 0)
  (-0.0358747 -0.117669 0)
  (-0.0149878 -0.114609 0)
  (0.00385464 -0.101942 0)
  (0.0195205 -0.082538 0)
  (0.0331349 -0.0585592 0)
  (0.0480563 -0.0313305 0)
  (0.0707654 -0.00130998 0)
  (0.103374 0.012748 0)
  (0.109456 -0.0294616 0)
  (0.0939177 -0.0390789 0)
  (0.0845597 -0.0365084 0)
  (0.0799765 -0.0308357 0)
  (0.0768869 -0.0233783 0)
  (0.0753243 -0.014297 0)
  (0.0774194 -0.00851125 0)
  (0.082575 -0.00653128 0)
  (0.086818 -0.00537596 0)
  (0.0895907 -0.00446299 0)
  (0.0911283 -0.00335818 0)
  (0.0907793 -0.00179109 0)
  (0.0875047 0.000437321 0)
  (0.08006 0.00362781 0)
  (0.0654428 0.00838695 0)
  (0.0530896 0.0298068 0)
  (0.0404026 0.0473131 0)
  (0.0607275 0.0605052 0)
  (-0.134777 0.0999767 0)
  (0.639659 0.395567 0)
  (-0.24712 0.175508 0)
  (-0.0367197 0.127192 0)
  (-0.0579379 0.091742 0)
  (-0.0620375 0.0576529 0)
  (-0.0596497 0.0177454 0)
  (-0.0429395 -0.0303713 0)
  (-0.023661 -0.0763279 0)
  (-0.00500928 -0.110548 0)
  (0.0115312 -0.130468 0)
  (0.0242121 -0.135625 0)
  (0.0342184 -0.12969 0)
  (0.0419393 -0.115037 0)
  (0.0482592 -0.0943301 0)
  (0.0544025 -0.0702236 0)
  (0.0622885 -0.0458449 0)
  (0.0746341 -0.0271734 0)
  (0.0855342 -0.0258991 0)
  (0.0866325 -0.034488 0)
  (0.0795526 -0.0347619 0)
  (0.0708875 -0.0306832 0)
  (0.0641991 -0.0256006 0)
  (0.0594784 -0.019908 0)
  (0.0570147 -0.0136503 0)
  (0.0573732 -0.00775662 0)
  (0.0601362 -0.00492752 0)
  (0.0631373 -0.00376343 0)
  (0.0659116 -0.00267953 0)
  (0.0683 -0.000644253 0)
  (0.0698197 0.00281145 0)
  (0.0692492 0.00771644 0)
  (0.066073 0.0142182 0)
  (0.059604 0.0230546 0)
  (0.05191 0.0394894 0)
  (0.0403208 0.0591399 0)
  (0.0683341 0.0805739 0)
  (-0.034797 0.112586 0)
  (0.0472815 0.0268914 0)
  (-0.0692343 -0.0379643 0)
  (-0.285993 -0.0615019 0)
  (0.728965 0.441235 0)
  (-0.286338 0.194706 0)
  (-0.00690428 0.121413 0)
  (-0.0096465 0.0896057 0)
  (-0.000715836 0.0542408 0)
  (0.0194394 0.00537246 0)
  (0.0491732 -0.0501232 0)
  (0.0689123 -0.0942215 0)
  (0.0812291 -0.123831 0)
  (0.0868226 -0.138962 0)
  (0.0870634 -0.140973 0)
  (0.0837382 -0.132455 0)
  (0.0783472 -0.116212 0)
  (0.0724749 -0.095157 0)
  (0.0675716 -0.0720415 0)
  (0.0649123 -0.0498804 0)
  (0.0652331 -0.0327461 0)
  (0.0654368 -0.025664 0)
  (0.0615646 -0.0254692 0)
  (0.0538009 -0.0251127 0)
  (0.0452555 -0.0227518 0)
  (0.0383552 -0.0195002 0)
  (0.0336143 -0.0158979 0)
  (0.0312891 -0.0121037 0)
  (0.0314586 -0.00890425 0)
  (0.0336215 -0.00767027 0)
  (0.036677 -0.00734743 0)
  (0.040175 -0.00658904 0)
  (0.0438789 -0.0043387 0)
  (0.0476037 0.000238854 0)
  (0.0504135 0.00712418 0)
  (0.0515786 0.0159292 0)
  (0.051445 0.0269925 0)
  (0.0515782 0.042269 0)
  (0.0491873 0.0614015 0)
  (0.0764892 0.0862091 0)
  (0.0487599 0.105411 0)
  (0.0974119 0.0698612 0)
  (0.122205 0.0453396 0)
  (-0.138698 -0.0102127 0)
  (0.785762 0.482994 0)
  (-0.304172 0.179137 0)
  (0.0240547 0.0651966 0)
  (0.0577774 0.0550653 0)
  (0.0840048 0.029285 0)
  (0.127996 -0.0246778 0)
  (0.156632 -0.0729928 0)
  (0.170453 -0.107357 0)
  (0.17147 -0.127657 0)
  (0.162361 -0.135268 0)
  (0.146284 -0.132032 0)
  (0.126344 -0.12039 0)
  (0.105233 -0.103113 0)
  (0.0851914 -0.0828547 0)
  (0.0678153 -0.0618264 0)
  (0.0540858 -0.042438 0)
  (0.0442356 -0.0276264 0)
  (0.0366467 -0.0198127 0)
  (0.0290316 -0.0174589 0)
  (0.0208724 -0.0167255 0)
  (0.013306 -0.0155588 0)
  (0.00741689 -0.0140694 0)
  (0.00352431 -0.0125348 0)
  (0.00175629 -0.0110843 0)
  (0.00205531 -0.0101875 0)
  (0.00391613 -0.0103355 0)
  (0.00663997 -0.0108175 0)
  (0.00996239 -0.0106701 0)
  (0.0139154 -0.00895937 0)
  (0.0186268 -0.00461338 0)
  (0.0253555 0.00325519 0)
  (0.0310024 0.012938 0)
  (0.0365187 0.0240844 0)
  (0.0438236 0.0376154 0)
  (0.0511612 0.0532229 0)
  (0.0763163 0.0734182 0)
  (0.08857 0.0808013 0)
  (0.125322 0.0525131 0)
  (0.167922 0.0428647 0)
  (-0.032267 0.0966669 0)
  (0.893707 0.482433 0)
  (-0.056248 0.15752 0)
  (0.119514 -0.0236226 0)
  (0.207843 -0.0596345 0)
  (0.253723 -0.0729945 0)
  (0.278691 -0.0896431 0)
  (0.287516 -0.105046 0)
  (0.279644 -0.1148 0)
  (0.25727 -0.117764 0)
  (0.224654 -0.11415 0)
  (0.186514 -0.104802 0)
  (0.14696 -0.0909701 0)
  (0.109286 -0.0744913 0)
  (0.0758112 -0.057158 0)
  (0.0477547 -0.0401977 0)
  (0.0258743 -0.0253248 0)
  (0.0102701 -0.014878 0)
  (-0.000579016 -0.00987417 0)
  (-0.00866897 -0.00887429 0)
  (-0.0154371 -0.00917579 0)
  (-0.0210696 -0.00946918 0)
  (-0.0253617 -0.00967428 0)
  (-0.0282866 -0.00991454 0)
  (-0.0298702 -0.0103047 0)
  (-0.0302635 -0.0110328 0)
  (-0.0298585 -0.0121539 0)
  (-0.0290544 -0.0133005 0)
  (-0.0279507 -0.0139788 0)
  (-0.0263597 -0.0136751 0)
  (-0.0238293 -0.0117774 0)
  (-0.0191914 -0.00748764 0)
  (-0.00862959 -0.000148754 0)
  (-0.000301097 0.00862465 0)
  (0.0109341 0.0172334 0)
  (0.0225301 0.0249406 0)
  (0.0438709 0.0337463 0)
  (0.0625117 0.0259927 0)
  (0.0815033 -0.00552482 0)
  (0.143167 0.0447476 0)
  (-0.455271 0.221964 0)
  (1.04596 0.426911 0)
  (0.495477 0.278739 0)
  (0.514627 0.172901 0)
  (0.549725 0.0947913 0)
  (0.529753 0.0409324 0)
  (0.482052 -0.00174559 0)
  (0.42691 -0.0329595 0)
  (0.366619 -0.0519565 0)
  (0.302013 -0.0600363 0)
  (0.236481 -0.0597184 0)
  (0.174121 -0.0537068 0)
  (0.117844 -0.0440076 0)
  (0.0699032 -0.0327879 0)
  (0.0307981 -0.0217277 0)
  (-0.000205243 -0.0116929 0)
  (-0.021384 -0.00490477 0)
  (-0.0334974 -0.00205877 0)
  (-0.0409442 -0.00165139 0)
  (-0.0462805 -0.00258727 0)
  (-0.0508363 -0.00394122 0)
  (-0.0548222 -0.00527553 0)
  (-0.0582373 -0.00656025 0)
  (-0.0611262 -0.00782756 0)
  (-0.0636025 -0.00910626 0)
  (-0.0658815 -0.0104155 0)
  (-0.0682976 -0.01167 0)
  (-0.0711948 -0.0125868 0)
  (-0.0748629 -0.0127543 0)
  (-0.0796231 -0.0116511 0)
  (-0.0859676 -0.00860591 0)
  (-0.0945967 -0.00281149 0)
  (-0.105124 0.00624825 0)
  (-0.116051 0.0181815 0)
  (-0.133347 0.0333201 0)
  (-0.160687 0.0514648 0)
  (-0.200479 0.0705385 0)
  (-0.256693 0.0852 0)
  (-0.320058 0.092472 0)
  (-0.391648 0.0930982 0)
  (-0.660321 0.0875992 0)
  (-0.180644 -0.0204998 0)
  (0.100335 -0.0354403 0)
  (0.177159 -0.0549663 0)
  (0.164272 -0.0475162 0)
  (0.145122 -0.0344363 0)
  (0.121115 -0.0225548 0)
  (0.0892522 -0.0124187 0)
  (0.0535202 -0.00452439 0)
  (0.018732 0.000879164 0)
  (-0.014081 0.0044047 0)
  (-0.0377632 0.00557878 0)
  (-0.0550231 0.00554167 0)
  (-0.0661196 0.00445974 0)
  (-0.0720173 0.00229084 0)
  (-0.07537 -0.000293345 0)
  (-0.0777556 -0.0029438 0)
  (-0.0799778 -0.00560422 0)
  (-0.08248 -0.00803036 0)
  (-0.0853764 -0.00993358 0)
  (-0.0884416 -0.0113815 0)
  (-0.0916363 -0.012444 0)
  (-0.0950834 -0.013165 0)
  (-0.0989471 -0.0135609 0)
  (-0.103387 -0.0135466 0)
  (-0.108483 -0.0128778 0)
  (-0.114169 -0.0111589 0)
  (-0.12019 -0.00788406 0)
  (-0.126069 -0.00249961 0)
  (-0.131072 0.00534921 0)
  (-0.134825 0.0160129 0)
  (-0.137803 0.0304977 0)
  (-0.140592 0.0492615 0)
  (-0.14432 0.0712498 0)
  (-0.14962 0.0918316 0)
  (-0.15298 0.0995348 0)
  (-0.135185 0.0723386 0)
  (-0.0821841 -0.0315255 0)
  (-0.289242 -0.225508 0)
  (0.0354578 0.198159 0)
  (0.0135294 0.0639277 0)
  (-0.0322237 0.011945 0)
  (-0.055722 0.0111144 0)
  (-0.0738892 0.0171574 0)
  (-0.0872853 0.0217079 0)
  (-0.0962971 0.0254643 0)
  (-0.103099 0.0286108 0)
  (-0.107993 0.0305678 0)
  (-0.111247 0.0310767 0)
  (-0.112649 0.0306275 0)
  (-0.112708 0.0304311 0)
  (-0.111662 0.0306718 0)
  (-0.11009 0.0313858 0)
  (-0.108617 0.0327423 0)
  (-0.107528 0.0345728 0)
  (-0.106965 0.0363858 0)
  (-0.106974 0.0376132 0)
  (-0.107459 0.0376726 0)
  (-0.108438 0.0366664 0)
  (-0.10987 0.035221 0)
  (-0.111731 0.0334903 0)
  (-0.113984 0.0315605 0)
  (-0.116574 0.0295186 0)
  (-0.11939 0.0274716 0)
  (-0.12225 0.0255337 0)
  (-0.124855 0.023794 0)
  (-0.126654 0.022485 0)
  (-0.12673 0.02305 0)
  (-0.123762 0.0267992 0)
  (-0.116131 0.0349023 0)
  (-0.102675 0.0484618 0)
  (-0.0837539 0.0672659 0)
  (-0.0606572 0.0863445 0)
  (-0.0364371 0.0972693 0)
  (0.00697401 0.0797777 0)
  (0.144676 0.00351855 0)
  (-0.207866 -0.138312 0)
  (-0.0924707 -0.347058 0)
  (-0.447228 -0.138558 0)
  (-0.333934 0.0445 0)
  (-0.291904 -0.0443812 0)
  (-0.251032 -0.0510359 0)
  (-0.239702 -0.0437508 0)
  (-0.2317 -0.0368161 0)
  (-0.222428 -0.0324849 0)
  (-0.210845 -0.0303739 0)
  (-0.197229 -0.0306057 0)
  (-0.182561 -0.0337282 0)
  (-0.168254 -0.0397515 0)
  (-0.155542 -0.0479032 0)
  (-0.145046 -0.0568936 0)
  (-0.136851 -0.0661397 0)
  (-0.130789 -0.0753368 0)
  (-0.126465 -0.0840492 0)
  (-0.123419 -0.0918015 0)
  (-0.121311 -0.0981214 0)
  (-0.119965 -0.102555 0)
  (-0.119356 -0.104802 0)
  (-0.11949 -0.104951 0)
  (-0.120282 -0.103706 0)
  (-0.121556 -0.101284 0)
  (-0.123146 -0.0978388 0)
  (-0.124865 -0.0934472 0)
  (-0.126461 -0.0880907 0)
  (-0.127582 -0.0816362 0)
  (-0.127773 -0.0738029 0)
  (-0.126427 -0.064375 0)
  (-0.122412 -0.0539708 0)
  (-0.113562 -0.0424133 0)
  (-0.0969151 -0.0291796 0)
  (-0.0703503 -0.0132856 0)
  (-0.0352907 0.00601284 0)
  (0.0240204 0.030831 0)
  (0.0746438 0.0316278 0)
  (0.123291 0.00984418 0)
  (0.176798 -0.0310719 0)
  (-0.178185 -0.0993584 0)
)
;

boundaryField
{
  floor
  {
    type noSlip;
  }
  ceiling
  {
    type noSlip;
  }
  sWall
  {
    type noSlip;
  }
  nWall
  {
    type noSlip;
  }
  sideWalls
  {
    type empty;
  }
  glass1
  {
    type noSlip;
  }
  glass2
  {
    type noSlip;
  }
  sun
  {
    type noSlip;
  }
  heatsource1
  {
    type noSlip;
  }
  heatsource2
  {
    type noSlip;
  }
  Table_master
  {
    type noSlip;
  }
  Table_slave
  {
    type noSlip;
  }
  inlet
  {
    type fixedValue;
    value uniform (0.277164 -0.114805 0);
  }
  outlet
  {
    type zeroGradient;
  }
} 	// ************************************************************************* //

