// -*- C++ -*-
// File generated by PyFoam - sorry for the ugliness

FoamFile
{
 version 2.0;
 format ascii;
 class volScalarField;
 location "100";
 object T;
}

dimensions [ 0 0 0 1 0 0 0 ];

internalField nonuniform List<scalar> 459
(
  301.797
  301.518
  301.479
  301.453
  301.429
  301.423
  301.451
  301.478
  301.506
  301.535
  301.566
  301.599
  301.633
  301.672
  301.726
  302.526
  302.441
  302.381
  302.362
  302.395
  302.428
  302.46
  302.491
  302.523
  302.555
  302.588
  302.621
  302.656
  302.692
  302.729
  302.769
  302.815
  302.875
  302.972
  301.959
  301.546
  301.48
  301.431
  301.375
  301.364
  301.389
  301.421
  301.455
  301.486
  301.517
  301.551
  301.59
  301.635
  301.69
  301.718
  301.763
  302.553
  302.456
  302.293
  302.289
  302.329
  302.378
  302.412
  302.445
  302.479
  302.513
  302.548
  302.584
  302.622
  302.662
  302.704
  302.75
  302.804
  302.873
  302.979
  302.152
  301.624
  301.541
  301.429
  301.334
  301.323
  301.352
  301.398
  301.442
  301.48
  301.511
  301.544
  301.58
  301.62
  301.667
  301.705
  301.749
  302.548
  302.305
  302.212
  302.23
  302.303
  302.383
  302.407
  302.438
  302.471
  302.507
  302.546
  302.588
  302.634
  302.683
  302.733
  302.784
  302.837
  302.9
  302.998
  302.353
  301.735
  301.584
  301.392
  301.291
  301.281
  301.328
  301.396
  301.46
  301.509
  301.544
  301.575
  301.605
  301.636
  301.671
  301.705
  301.741
  301.766
  301.873
  301.933
  302.04
  302.185
  302.337
  302.469
  302.573
  302.652
  302.721
  302.786
  302.848
  302.908
  302.967
  303.027
  303.085
  303.014
  302.965
  302.963
  303.026
  302.583
  301.876
  301.543
  301.3
  301.206
  301.232
  301.324
  301.432
  301.526
  301.591
  301.637
  301.663
  301.679
  301.693
  301.711
  301.734
  301.761
  301.797
  301.865
  301.986
  302.157
  302.349
  302.533
  302.689
  302.819
  302.918
  303.001
  303.068
  303.123
  303.167
  303.203
  303.228
  303.239
  303.175
  303.084
  303.035
  303.059
  303.397
  303.799
  303.706
  302.843
  302.1
  301.402
  301.08
  301.07
  301.211
  301.393
  301.561
  301.687
  301.773
  301.811
  301.81
  301.8
  301.796
  301.802
  301.821
  301.859
  301.938
  302.075
  302.257
  302.464
  302.668
  302.848
  302.993
  303.108
  303.199
  303.263
  303.313
  303.352
  303.381
  303.398
  303.4
  303.382
  303.308
  303.202
  303.123
  303.11
  303.28
  303.439
  303.538
  301.268
  300.456
  299.997
  300.426
  300.98
  301.409
  301.706
  301.903
  302.036
  302.055
  302.025
  301.995
  301.973
  301.968
  301.983
  302.025
  302.11
  302.259
  302.461
  302.675
  302.882
  303.065
  303.214
  303.328
  303.417
  303.471
  303.509
  303.538
  303.56
  303.572
  303.574
  303.56
  303.525
  303.444
  303.34
  303.248
  303.207
  303.274
  303.356
  303.446
  299.831
  298.124
  298.011
  301.607
  302.322
  302.426
  302.416
  302.389
  302.354
  302.318
  302.283
  302.26
  302.253
  302.268
  302.312
  302.394
  302.53
  302.729
  302.951
  303.165
  303.338
  303.473
  303.574
  303.643
  303.685
  303.71
  303.728
  303.741
  303.747
  303.746
  303.736
  303.713
  303.674
  303.611
  303.516
  303.431
  303.389
  303.434
  303.493
  303.636
  299.118
  297.346
  297.189
  302.302
  302.845
  302.859
  302.799
  302.737
  302.689
  302.656
  302.639
  302.64
  302.662
  302.709
  302.788
  302.904
  303.06
  303.248
  303.436
  303.6
  303.724
  303.81
  303.866
  303.898
  303.915
  303.924
  303.928
  303.929
  303.924
  303.913
  303.894
  303.868
  303.837
  303.809
  303.793
  303.801
  303.84
  303.894
  303.93
  304.031
  293.909
  302.524
  303.171
  303.198
  303.155
  303.114
  303.084
  303.074
  303.082
  303.108
  303.155
  303.225
  303.319
  303.438
  303.575
  303.719
  303.851
  303.957
  304.033
  304.081
  304.108
  304.12
  304.124
  304.122
  304.116
  304.105
  304.09
  304.068
  304.04
  304.009
  303.979
  303.955
  303.944
  303.952
  303.987
  304.052
  304.164
  304.498
  303.03
  303.463
  303.558
  303.562
  303.547
  303.535
  303.532
  303.543
  303.569
  303.611
  303.668
  303.739
  303.823
  303.918
  304.016
  304.11
  304.189
  304.249
  304.289
  304.312
  304.322
  304.323
  304.318
  304.309
  304.295
  304.276
  304.251
  304.222
  304.189
  304.154
  304.12
  304.09
  304.067
  304.059
  304.072
  304.14
  304.292
  304.465
  303.81
  303.741
  303.722
  303.98
  304.038
  304.049
  304.059
  304.072
  304.087
  304.11
  304.142
  304.18
  304.225
  304.274
  304.326
  304.378
  304.426
  304.468
  304.5
  304.522
  304.534
  304.538
  304.535
  304.528
  304.517
  304.503
  304.485
  304.464
  304.439
  304.411
  304.379
  304.345
  304.309
  304.272
  304.238
  304.212
  304.222
  304.296
  304.42
  304.688
)
;

boundaryField
{
  floor
  {
    type wallHeatTransfer;
    Tinf uniform 305.2;
    alphaWall uniform 0.24;
    value nonuniform List<scalar> 29
(
  302.103
  302.916
  302.8
  302.71
  302.67
  302.689
  302.721
  302.763
  302.808
  302.853
  302.898
  302.942
  302.985
  303.028
  303.071
  303.114
  303.16
  303.212
  303.277
  303.383
  303.383
  303.367
  303.373
  303.389
  302.103
  302.916
  302.948
  302.947
  302.108
)
;
  }
  ceiling
  {
    type wallHeatTransfer;
    Tinf uniform 303.2;
    alphaWall uniform 0.24;
    value nonuniform List<scalar> 43
(
  303.762
  303.7
  303.683
  303.918
  303.968
  303.979
  303.988
  304.001
  304.016
  304.038
  304.067
  304.103
  304.144
  304.189
  304.236
  304.282
  304.324
  304.36
  304.385
  304.401
  304.407
  304.406
  304.4
  304.39
  304.376
  304.36
  304.341
  304.319
  304.294
  304.267
  304.239
  304.208
  304.177
  304.147
  304.12
  304.099
  304.111
  304.173
  304.277
  304.516
  299.331
  297.641
  303.041
)
;
  }
  sWall
  {
    type wallHeatTransfer;
    Tinf uniform 315.2;
    alphaWall uniform 0.36;
    value uniform 305.117;
  }
  nWall
  {
    type wallHeatTransfer;
    Tinf uniform 307.2;
    alphaWall uniform 0.36;
    value nonuniform List<scalar> 6
(
  304.383
  304.223
  304.088
  304.902
  304.864
  305.103
)
;
  }
  sideWalls
  {
    type empty;
  }
  glass1
  {
    type wallHeatTransfer;
    Tinf uniform 315.2;
    alphaWall uniform 4.3;
    value nonuniform List<scalar> 9
(
  310.043
  309.56
  309.224
  308.981
  309.008
  309.172
  307.855
  306.816
  307.193
)
;
  }
  glass2
  {
    type wallHeatTransfer;
    Tinf uniform 307.2;
    alphaWall uniform 4.3;
    value nonuniform List<scalar> 2
(
  305.921
  306.093
)
;
  }
  sun
  {
    type wallHeatTransfer;
    Tinf uniform 305.2;
    alphaWall uniform 0.24;
    value nonuniform List<scalar> 14
(
  302.07
  301.788
  301.741
  301.702
  301.673
  301.669
  301.707
  301.745
  301.784
  301.826
  301.871
  301.918
  301.968
  302.025
)
;
  }
  heatsource1
  {
    type fixedGradient;
    gradient uniform 0;
  }
  heatsource2
  {
    type fixedGradient;
    gradient uniform 0;
  }
  Table_master
  {
    type zeroGradient;
  }
  Table_slave
  {
    type zeroGradient;
  }
  inlet
  {
    type fixedValue;
    value uniform 290.15;
  }
  outlet
  {
    type zeroGradient;
  }
} 	// ************************************************************************* //

