// -*- C++ -*-
// File generated by PyFoam - sorry for the ugliness

FoamFile
{
 version 2.0;
 format ascii;
 class volVectorField;
 location "100";
 object U;
}

dimensions [ 0 1 -1 0 0 0 0 ];

internalField nonuniform List<vector> 459
(
  (-0.0339461 0.100503 0)
  (-0.22115 0.0222099 0)
  (-0.242793 -0.0157489 0)
  (-0.213023 -0.0462035 0)
  (-0.147922 -0.0716201 0)
  (-0.0696114 -0.0812374 0)
  (0.026857 -0.0660726 0)
  (0.0853979 -0.0476258 0)
  (0.131392 -0.03215 0)
  (0.161679 -0.019771 0)
  (0.17578 -0.00966971 0)
  (0.175289 -0.000403655 0)
  (0.160783 0.0103381 0)
  (0.128683 0.0280439 0)
  (0.0905785 0.0721874 0)
  (-0.0363123 0.0207964 0)
  (-0.0651318 -0.00954326 0)
  (-0.0450565 -0.0300702 0)
  (-0.0162544 -0.0402151 0)
  (0.0270919 -0.0350988 0)
  (0.0560264 -0.0256596 0)
  (0.0777678 -0.014575 0)
  (0.0913437 -0.00859329 0)
  (0.0981354 -0.00638425 0)
  (0.101621 -0.00553813 0)
  (0.104101 -0.00500927 0)
  (0.106171 -0.0045608 0)
  (0.107722 -0.00405022 0)
  (0.108334 -0.0031932 0)
  (0.106853 -0.00133944 0)
  (0.101207 0.0023543 0)
  (0.0888895 0.00748682 0)
  (0.0683458 0.0152644 0)
  (0.026391 0.0335976 0)
  (0.1397 0.21928 0)
  (-0.180539 0.0927504 0)
  (-0.173125 0.0118512 0)
  (-0.126496 -0.0701361 0)
  (-0.0637053 -0.121622 0)
  (0.00387219 -0.130072 0)
  (0.0635883 -0.108651 0)
  (0.110091 -0.0792095 0)
  (0.145454 -0.0513239 0)
  (0.167821 -0.0272531 0)
  (0.177689 -0.00652409 0)
  (0.176764 0.0122383 0)
  (0.167063 0.0313932 0)
  (0.15261 0.0546025 0)
  (0.138496 0.0901956 0)
  (0.130741 0.0833923 0)
  (0.0817747 0.0762228 0)
  (0.0172648 0.0579207 0)
  (-0.0273923 0.00618227 0)
  (0.0297432 -0.0505139 0)
  (0.0445949 -0.0573524 0)
  (0.0646233 -0.0514618 0)
  (0.0827094 -0.0388666 0)
  (0.0918139 -0.0183015 0)
  (0.0945762 -0.00573926 0)
  (0.0949688 -0.00112357 0)
  (0.0953894 0.00039224 0)
  (0.0960042 0.00105775 0)
  (0.096499 0.00145469 0)
  (0.0968038 0.00203159 0)
  (0.0968958 0.00362574 0)
  (0.0958225 0.00747561 0)
  (0.090239 0.016966 0)
  (0.0765457 0.0275821 0)
  (0.0569173 0.0408963 0)
  (-0.00585043 0.0686706 0)
  (0.30751 0.32363 0)
  (-0.172854 0.135255 0)
  (-0.092344 0.00571375 0)
  (-0.0176746 -0.134616 0)
  (0.0391475 -0.189831 0)
  (0.0812198 -0.183625 0)
  (0.118384 -0.153249 0)
  (0.14782 -0.113964 0)
  (0.168361 -0.0752707 0)
  (0.179696 -0.040878 0)
  (0.182722 -0.0111668 0)
  (0.178593 0.0155913 0)
  (0.169335 0.0411538 0)
  (0.157828 0.0671259 0)
  (0.145732 0.0936855 0)
  (0.126708 0.0998751 0)
  (0.0964621 0.135626 0)
  (0.0835123 0.0171949 0)
  (0.0822826 -0.0405768 0)
  (0.092912 -0.0666235 0)
  (0.0988156 -0.0716937 0)
  (0.104712 -0.0648417 0)
  (0.112019 -0.0548758 0)
  (0.111373 -0.0412547 0)
  (0.0969468 -0.026441 0)
  (0.0857525 -0.0183333 0)
  (0.0805145 -0.013759 0)
  (0.0778188 -0.0108206 0)
  (0.0756528 -0.00881388 0)
  (0.0738218 -0.007228 0)
  (0.0731297 -0.00520053 0)
  (0.0761789 0.000554506 0)
  (0.0742145 0.0240352 0)
  (0.06006 0.0430808 0)
  (0.0481982 0.0635269 0)
  (-0.0381738 0.102929 0)
  (0.459017 0.400997 0)
  (-0.197135 0.141077 0)
  (0.0369011 -0.0935722 0)
  (0.111041 -0.210982 0)
  (0.145957 -0.236022 0)
  (0.167823 -0.217984 0)
  (0.182138 -0.178162 0)
  (0.189635 -0.13059 0)
  (0.191411 -0.0841885 0)
  (0.188657 -0.0430229 0)
  (0.182276 -0.00754679 0)
  (0.171631 0.023847 0)
  (0.16005 0.05146 0)
  (0.150227 0.0764839 0)
  (0.14554 0.0998005 0)
  (0.149844 0.116315 0)
  (0.164148 0.149106 0)
  (0.20087 0.126013 0)
  (0.173661 0.0426195 0)
  (0.162647 -0.0171905 0)
  (0.152928 -0.0526674 0)
  (0.140845 -0.0643108 0)
  (0.12875 -0.0605169 0)
  (0.117143 -0.0483705 0)
  (0.114629 -0.0276687 0)
  (0.124067 -0.016087 0)
  (0.128819 -0.00946999 0)
  (0.126467 -0.00518092 0)
  (0.120208 -0.00196895 0)
  (0.111734 0.000758675 0)
  (0.100958 0.00350142 0)
  (0.0866776 0.00697503 0)
  (0.064325 0.012362 0)
  (0.0480496 0.0371628 0)
  (0.0387312 0.0585337 0)
  (0.0437092 0.0820773 0)
  (-0.0675213 0.13032 0)
  (0.613252 0.454169 0)
  (-0.210573 -0.0192284 0)
  (0.192497 -0.235857 0)
  (0.256142 -0.272178 0)
  (0.265233 -0.260763 0)
  (0.25431 -0.224701 0)
  (0.236311 -0.17564 0)
  (0.215698 -0.123349 0)
  (0.195038 -0.0743883 0)
  (0.175858 -0.031623 0)
  (0.155984 0.0060118 0)
  (0.138846 0.0373582 0)
  (0.127046 0.0624082 0)
  (0.121627 0.0825797 0)
  (0.124184 0.0989776 0)
  (0.135806 0.108098 0)
  (0.156742 0.108023 0)
  (0.175032 0.0520968 0)
  (0.17503 0.00111744 0)
  (0.168747 -0.0308264 0)
  (0.155221 -0.0473463 0)
  (0.137302 -0.0514762 0)
  (0.118994 -0.0461633 0)
  (0.103001 -0.0336569 0)
  (0.0935531 -0.0135884 0)
  (0.0896117 -0.000665393 0)
  (0.0846804 0.00607307 0)
  (0.0783689 0.0097935 0)
  (0.0715095 0.0124892 0)
  (0.0645878 0.0151224 0)
  (0.0573634 0.0184521 0)
  (0.0494767 0.0233719 0)
  (0.0396332 0.0310363 0)
  (0.031624 0.0474655 0)
  (0.0274558 0.0666118 0)
  (0.0511473 0.0914979 0)
  (-0.00244075 0.135203 0)
  (0.0639366 0.0686203 0)
  (-0.047499 -0.025675 0)
  (-0.270082 -0.049438 0)
  (0.787667 0.460767 0)
  (0.412745 0.0653618 0)
  (0.41124 -0.155076 0)
  (0.421471 -0.224475 0)
  (0.372806 -0.220856 0)
  (0.306543 -0.184661 0)
  (0.245539 -0.136291 0)
  (0.193595 -0.0872085 0)
  (0.150782 -0.0422495 0)
  (0.112694 -0.000997004 0)
  (0.0848328 0.0315999 0)
  (0.0715006 0.0541171 0)
  (0.067525 0.0702481 0)
  (0.0703625 0.0821285 0)
  (0.0794747 0.089717 0)
  (0.0941646 0.0894907 0)
  (0.114871 0.0772723 0)
  (0.131146 0.0401486 0)
  (0.13481 0.00805606 0)
  (0.128473 -0.0143678 0)
  (0.114438 -0.0274028 0)
  (0.0968746 -0.0313774 0)
  (0.0789138 -0.0277683 0)
  (0.0628275 -0.0183774 0)
  (0.050797 -0.00489827 0)
  (0.0421574 0.00538485 0)
  (0.0364025 0.0109999 0)
  (0.0313817 0.0140785 0)
  (0.0269668 0.0164096 0)
  (0.0232886 0.0189721 0)
  (0.0204457 0.0225621 0)
  (0.0187533 0.0280627 0)
  (0.0180126 0.0361446 0)
  (0.0201114 0.0479543 0)
  (0.0247129 0.0629936 0)
  (0.0542364 0.0859042 0)
  (0.0464437 0.112028 0)
  (0.0927059 0.0773153 0)
  (0.112528 0.0474258 0)
  (-0.119729 0.00369519 0)
  (1.1495 -0.140114 0)
  (0.496596 -0.214069 0)
  (0.431495 -0.225181 0)
  (0.410972 -0.200858 0)
  (0.311411 -0.163547 0)
  (0.21133 -0.116295 0)
  (0.130813 -0.0680601 0)
  (0.0698273 -0.0249587 0)
  (0.019139 0.0113792 0)
  (-0.00298231 0.0338195 0)
  (-0.00817759 0.0471887 0)
  (-0.00698157 0.0574354 0)
  (-0.000535838 0.066014 0)
  (0.0100791 0.0721887 0)
  (0.0241676 0.0744424 0)
  (0.0410256 0.0703507 0)
  (0.0597876 0.0578847 0)
  (0.0721965 0.0341983 0)
  (0.0740808 0.0117669 0)
  (0.0680977 -0.00428858 0)
  (0.0558579 -0.0130238 0)
  (0.0405575 -0.0150823 0)
  (0.0248337 -0.0117129 0)
  (0.0105947 -0.00436153 0)
  (-0.000971116 0.00508929 0)
  (-0.00705614 0.0118143 0)
  (-0.0105954 0.0153961 0)
  (-0.0129068 0.0173568 0)
  (-0.0141612 0.0187668 0)
  (-0.0141171 0.0202832 0)
  (-0.0122811 0.022497 0)
  (-0.00798465 0.0260544 0)
  (-0.000809028 0.03151 0)
  (0.010432 0.0390157 0)
  (0.0230747 0.0483095 0)
  (0.0514337 0.0653966 0)
  (0.0695402 0.0784325 0)
  (0.10635 0.0556079 0)
  (0.150614 0.0439698 0)
  (-0.0511953 0.092271 0)
  (1.17585 -0.349071 0)
  (-0.418235 -0.160382 0)
  (-0.0614529 -0.171453 0)
  (0.044917 -0.0898074 0)
  (-0.0301526 -0.0629293 0)
  (-0.0622267 -0.0313533 0)
  (-0.0826179 -0.00616036 0)
  (-0.0930443 0.0124861 0)
  (-0.0931284 0.0243454 0)
  (-0.0899255 0.0330324 0)
  (-0.0836584 0.0406431 0)
  (-0.0749401 0.0475999 0)
  (-0.0636198 0.0532669 0)
  (-0.0500007 0.0568591 0)
  (-0.0345862 0.0573507 0)
  (-0.0183761 0.0534202 0)
  (-0.0031382 0.0441567 0)
  (0.00558538 0.0290555 0)
  (0.0058243 0.0148154 0)
  (-0.000561269 0.00469505 0)
  (-0.010221 -0.000428597 0)
  (-0.0220382 -0.000962748 0)
  (-0.0337633 0.00185559 0)
  (-0.0433706 0.00653468 0)
  (-0.0492292 0.0113565 0)
  (-0.0520588 0.0148039 0)
  (-0.0530891 0.0167226 0)
  (-0.0529277 0.0175126 0)
  (-0.0515664 0.0175237 0)
  (-0.0486196 0.017012 0)
  (-0.0434706 0.0162321 0)
  (-0.0354767 0.0154716 0)
  (-0.0243501 0.0149853 0)
  (-0.0102941 0.0149692 0)
  (0.00680064 0.0156823 0)
  (0.0302696 0.0226404 0)
  (0.0527032 0.0226316 0)
  (0.0752313 0.0018061 0)
  (0.143214 0.0483306 0)
  (-0.446308 0.200938 0)
  (0.905824 -0.269506 0)
  (-0.494842 -0.25283 0)
  (-0.30305 -0.274317 0)
  (-0.117554 -0.123284 0)
  (-0.154908 -0.0639044 0)
  (-0.162191 -0.03436 0)
  (-0.166601 -0.0135264 0)
  (-0.165807 0.00265255 0)
  (-0.160522 0.0147656 0)
  (-0.15308 0.0234766 0)
  (-0.143928 0.030169 0)
  (-0.133213 0.0356394 0)
  (-0.120966 0.0397824 0)
  (-0.107493 0.0421952 0)
  (-0.0934398 0.0423363 0)
  (-0.0799438 0.0396825 0)
  (-0.068742 0.0341262 0)
  (-0.0625379 0.0261303 0)
  (-0.0619902 0.0183302 0)
  (-0.0658057 0.0124723 0)
  (-0.0719989 0.00926308 0)
  (-0.0788204 0.00855426 0)
  (-0.084773 0.00955163 0)
  (-0.0889601 0.0114168 0)
  (-0.0910384 0.0133649 0)
  (-0.0914581 0.0146787 0)
  (-0.0909381 0.0151177 0)
  (-0.0900658 0.0147104 0)
  (-0.0893059 0.013591 0)
  (-0.0891593 0.0120696 0)
  (-0.0903126 0.0108061 0)
  (-0.0937526 0.0109124 0)
  (-0.10087 0.0138128 0)
  (-0.113458 0.0209515 0)
  (-0.133215 0.033434 0)
  (-0.160794 0.0511116 0)
  (-0.201284 0.0701347 0)
  (-0.255251 0.0859962 0)
  (-0.329605 0.095067 0)
  (-0.592395 0.0896593 0)
  (-0.44934 -0.221593 0)
  (-0.111064 -0.0928216 0)
  (-0.177938 -0.0439765 0)
  (-0.203785 -0.0226402 0)
  (-0.212911 -0.00853828 0)
  (-0.214042 0.00245635 0)
  (-0.210329 0.0109792 0)
  (-0.203888 0.01755 0)
  (-0.195431 0.0226217 0)
  (-0.185417 0.0265972 0)
  (-0.174192 0.0295624 0)
  (-0.162221 0.0314053 0)
  (-0.150184 0.0319339 0)
  (-0.139018 0.0310012 0)
  (-0.129872 0.0286551 0)
  (-0.123947 0.0252356 0)
  (-0.121442 0.0218146 0)
  (-0.121601 0.0192299 0)
  (-0.123269 0.0179735 0)
  (-0.125295 0.0181393 0)
  (-0.126791 0.019428 0)
  (-0.127271 0.0214352 0)
  (-0.126619 0.0237618 0)
  (-0.125055 0.0260292 0)
  (-0.122962 0.0279707 0)
  (-0.120743 0.0293957 0)
  (-0.118803 0.0301751 0)
  (-0.117533 0.0303461 0)
  (-0.117201 0.0302935 0)
  (-0.117851 0.0309063 0)
  (-0.119335 0.0336175 0)
  (-0.121338 0.0402675 0)
  (-0.123193 0.0525186 0)
  (-0.12374 0.0700498 0)
  (-0.121187 0.0863872 0)
  (-0.107214 0.0841723 0)
  (-0.0753853 0.0272055 0)
  (-0.185564 -0.191901 0)
  (-0.168934 0.0597328 0)
  (-0.186338 -0.0103176 0)
  (-0.225336 -0.0275006 0)
  (-0.246091 -0.0271819 0)
  (-0.255104 -0.0232075 0)
  (-0.257669 -0.018214 0)
  (-0.255798 -0.0129653 0)
  (-0.250941 -0.00850097 0)
  (-0.243784 -0.00502222 0)
  (-0.23486 -0.00239019 0)
  (-0.224616 -0.000537453 0)
  (-0.213522 0.000488688 0)
  (-0.202135 0.000559001 0)
  (-0.191112 -0.000490529 0)
  (-0.181176 -0.00279896 0)
  (-0.172974 -0.00637593 0)
  (-0.166724 -0.0108875 0)
  (-0.162186 -0.0159391 0)
  (-0.158858 -0.0211376 0)
  (-0.156156 -0.0261804 0)
  (-0.15358 -0.030937 0)
  (-0.150807 -0.035397 0)
  (-0.147693 -0.0396124 0)
  (-0.144251 -0.0435941 0)
  (-0.140566 -0.0471449 0)
  (-0.136721 -0.0497886 0)
  (-0.132759 -0.0508233 0)
  (-0.12865 -0.0494553 0)
  (-0.124198 -0.0449639 0)
  (-0.118876 -0.0368189 0)
  (-0.111657 -0.0246762 0)
  (-0.100985 -0.00833483 0)
  (-0.0850198 0.0118 0)
  (-0.0626028 0.0329258 0)
  (-0.0357803 0.0475979 0)
  (0.00895316 0.030591 0)
  (0.133929 -0.0406578 0)
  (-0.117353 -0.103433 0)
  (-0.128823 -0.342432 0)
  (-0.419524 -0.101223 0)
  (-0.360857 0.102374 0)
  (-0.314148 0.0654255 0)
  (-0.299446 0.0555043 0)
  (-0.300865 0.0524314 0)
  (-0.304996 0.0522591 0)
  (-0.307286 0.0531966 0)
  (-0.306583 0.0544492 0)
  (-0.303024 0.0563279 0)
  (-0.296948 0.0588144 0)
  (-0.288749 0.0618604 0)
  (-0.278797 0.0654759 0)
  (-0.267458 0.0697039 0)
  (-0.255128 0.0746135 0)
  (-0.242271 0.0802943 0)
  (-0.229422 0.0868401 0)
  (-0.217113 0.0943163 0)
  (-0.205708 0.102724 0)
  (-0.195331 0.11193 0)
  (-0.185886 0.121679 0)
  (-0.177128 0.131662 0)
  (-0.168757 0.141612 0)
  (-0.160497 0.151341 0)
  (-0.152154 0.160687 0)
  (-0.14365 0.169393 0)
  (-0.135005 0.177005 0)
  (-0.126282 0.18287 0)
  (-0.117523 0.186263 0)
  (-0.108675 0.186575 0)
  (-0.0994692 0.183511 0)
  (-0.0891746 0.177262 0)
  (-0.0763675 0.16866 0)
  (-0.0593129 0.159364 0)
  (-0.0373667 0.151851 0)
  (-0.0101969 0.147855 0)
  (0.0256016 0.147707 0)
  (0.0516254 0.151342 0)
  (0.151854 0.151876 0)
  (-0.346171 0.196612 0)
)
;

boundaryField
{
  floor
  {
    type noSlip;
  }
  ceiling
  {
    type noSlip;
  }
  sWall
  {
    type noSlip;
  }
  nWall
  {
    type noSlip;
  }
  sideWalls
  {
    type empty;
  }
  glass1
  {
    type noSlip;
  }
  glass2
  {
    type noSlip;
  }
  sun
  {
    type noSlip;
  }
  heatsource1
  {
    type noSlip;
  }
  heatsource2
  {
    type noSlip;
  }
  Table_master
  {
    type noSlip;
  }
  Table_slave
  {
    type noSlip;
  }
  inlet
  {
    type fixedValue;
    value uniform (0.277164 -0.114805 0);
  }
  outlet
  {
    type zeroGradient;
  }
} 	// ************************************************************************* //

