/*--------------------------------*- C++ -*----------------------------------*=========                 |
  \      /  F ield         | OpenFOAM: The Open Source CFD Toolbox
   \    /   O peration     | Website:  https://openfoam.org
    \  /    A nd           | Version:  6
     \/     M anipulation  |
\*---------------------------------------------------------------------------*/
FoamFile
{
    version     2.0;
    format      ascii;
    class       volScalarField;
    location    "500";
    object      PMV;
}
// * * * * * * * * * * * * * * * * * * * * * * * * * * * * * * * * * * * * * //

dimensions      [0 0 0 0 0 0 0];

internalField   nonuniform List<scalar> 
459
(
1.5149633934839946
1.3043587876987381
1.298557244550817
1.2747131595445975
1.2561589534539779
1.2412387826930367
1.2302122985086033
1.2230259529063758
1.219382496916655
1.221008524931028
1.227574452787062
1.2423317461373284
1.2675901913964265
1.2940218872091713
1.2827612045702717
1.3396113606558286
1.3864062818160807
1.378946830146199
1.3549100937022778
1.342087946132667
1.335504384289191
1.331739299075646
1.331727651481865
1.332959935076862
1.3345378544719544
1.336465521986661
1.3378987900209023
1.339093406964164
1.3414583464026901
1.3452116546549082
1.3537795511575923
1.3544314696849558
1.3515678171499956
1.3572950843668543
1.4911717397647624
1.3002922836339132
1.3197354114287136
1.2934946936666267
1.276357669388606
1.263652451075419
1.2543555327449545
1.248787386270363
1.246053516666075
1.247184630776942
1.2504715498869934
1.2573112120613856
1.2660197999385276
1.2699297273544827
1.2658608022253113
1.295529343280247
1.3417173322235383
1.3195025705781434
1.3768620811083727
1.3716125794167895
1.3677946761413613
1.3644539534881719
1.361113177873565
1.3521747821755965
1.347583425955697
1.3442527911097215
1.3410110321195323
1.33738731095816
1.333300639151086
1.3297945205758355
1.326441256365697
1.3245597242905895
1.3287768063591232
1.3281799423813603
1.3272252843778378
1.2970290734999896
1.559823949692506
1.2825707364900698
1.3462597561401053
1.322236681209087
1.3134557534777642
1.3064749466073147
1.302508214720498
1.299985872947406
1.299072037588183
1.2997684445473594
1.3004187597832608
1.2988593082494109
1.2927419971835197
1.280898101416162
1.2688778863210877
1.2713587624143086
1.2593913013806315
1.3474944697887437
1.3768620811083727
1.3730442750003926
1.3692263980888888
1.3658856982813243
1.3625449453053766
1.3568178178946422
1.3506132579451073
1.3444085221704598
1.3391582260447465
1.3339078080240325
1.3286572699195103
1.3238839507706561
1.319110535210872
1.3157690876706485
1.3126762163671872
1.314337024576894
1.2993214595241809
1.2198734361474874
1.655130036623908
1.2770295082027905
1.3672755595107706
1.35128979418616
1.3539296450650478
1.3574662308128789
1.3612233873524542
1.3650112491306974
1.3681414457179628
1.369699616268898
1.3681799779777184
1.3587157241130807
1.3394319074581664
1.3121563876967866
1.2836292560085898
1.2601869668262085
1.2503385086440801
1.3156682523891279
1.3502516855765998
1.3811570274388392
1.3787709573831364
1.375430412161411
1.3725670442436133
1.3697036365500357
1.3673174333089047
1.365408451100114
1.363499451552838
1.3472146719283848
1.3301784521548758
1.3180805770524948
1.3126119627169126
1.3168099948409078
1.3350472299063059
1.3329531736112719
1.3210199129183864
1.2654812384665133
1.1584295007573515
1.7570094250276653
1.2912438077325692
1.3827583501854224
1.3767846203633143
1.392587982796267
1.4088740106607989
1.4248752425780709
1.4394861662918501
1.4503455513692876
1.4558845457246345
1.452411792687776
1.434336803546287
1.4029613407757016
1.3629711416212327
1.3201273092800831
1.2829005150615904
1.2643011561956021
1.2864951843475392
1.3158484731389595
1.3692196298430144
1.385451882190971
1.3835430692297148
1.3811570274388392
1.3787709573831364
1.3778165214868916
1.3763848592418617
1.375430412161411
1.3739987331936732
1.3720898123819194
1.3578250545044623
1.3465655123123097
1.341317794779064
1.3403325263544261
1.3292906659272878
1.3101144210727873
1.2358920515788856
1.227664165414799
1.3582496141304037
1.3269312271574092
1.134534387988489
1.8518588992527278
1.328533717762821
1.4145970590999872
1.401011915305466
1.4237980856419084
1.452836285990009
1.4855051567933741
1.5188914323055063
1.5476667786992369
1.5625067017258247
1.5479008213842511
1.5114835531486357
1.4654667143347029
1.4148942523469294
1.3629999677273597
1.3156632512456392
1.2828140566966204
1.2728171575972236
1.2990623270654937
1.3571745976332652
1.3916553974733572
1.390701023213224
1.3892694531306002
1.3883150672974514
1.387360676855438
1.3868834799096874
1.3864062818160807
1.384974680662372
1.3830658631413328
1.3792481736468447
1.3739987331936732
1.3663629443774497
1.3574098406521868
1.3298030760533697
1.298568675406558
1.2252772967164207
1.2382114090144452
1.239966908531609
1.2290548923214608
1.2352896497634807
1.9302330220213892
1.4230241837072923
1.55363968744222
1.4584672300477919
1.4450406302969174
1.4799310498426266
1.5290624142766427
1.553821409854252
1.57288804857208
1.5967159250568312
1.5976729951803772
1.5470275023441782
1.4976956707795925
1.4473886998221333
1.3949050143415123
1.3442180986588161
1.2995600952970057
1.2663929730935413
1.2899042215723775
1.3559846572090628
1.396904372481026
1.3978587163106824
1.3973815449857867
1.396904372481026
1.396904372481026
1.396904372481026
1.396904372481026
1.3959500239376497
1.393564132033337
1.3897466443152162
1.3830658631413328
1.3730442750003926
1.3630221989674125
1.3525223721823523
1.3122951833884147
1.2452388661736813
1.2283758488994785
1.2088017850933295
1.172757339724688
1.2818632111076496
2.0664632355221415
1.791216428058015
1.7671577561093694
1.6132184173609396
1.5442138570950892
1.5276320676086865
1.5350922972982932
1.5470298586359714
1.5542050650494776
1.5458084165393495
1.5338922139218543
1.5107281427813413
1.478048570863211
1.4405511311030292
1.4011222878742302
1.36051565221805
1.3161796774189503
1.2661538214728958
1.2876533694335717
1.3655524078856172
1.4021532048968814
1.404538990147159
1.4054932958438282
1.4054932958438282
1.4064475967207795
1.4069247453481661
1.4069247453481661
1.4064475967207795
1.404538990147159
1.4016760442571434
1.3959500239376497
1.387360676855438
1.374953186950371
1.3644539534881719
1.355863281776294
1.348704127061832
1.3344909449544649
1.3244085479126564
1.2478788090339274
1.1320588119014172
2.2636054087040693
2.1110090804657893
1.9366941533921782
1.7794760855461107
1.6637954464070996
1.590301162061276
1.5465551374059596
1.5223123278304875
1.5104611403399706
1.4977563352895473
1.475483994250016
1.4480871371719604
1.4211938861910178
1.396456240058882
1.3754361030750653
1.3549902703804053
1.3273521370557209
1.2746427796637079
1.2976040256220471
1.3888258889384557
1.4078790389733296
1.411696164861892
1.413127566911169
1.4140818288029577
1.4155132123991487
1.413005302887438
1.402431378339793
1.3906117702480063
1.3778449411010818
1.3645082169979916
1.349904088530378
1.33462032121418
1.3212264463139902
1.308073221054764
1.2925200931028245
1.279205257922685
1.2681138956968028
1.2604686796847873
1.246167367515417
1.2088386163252014
-2.0685032881901946
0.026353652280113906
0.8119923897601012
1.123165050106238
1.249992234716757
1.3022516051325357
1.3202492566251736
1.325350041961012
1.325433179879139
1.3232107316898063
1.3215234727295941
1.3222017483931723
1.3277103938529156
1.3385234682379143
1.3471014509555619
1.297660486934724
1.333777088820534
1.4059704468854932
1.4145589579020381
1.4193301808200842
1.4212386351218131
1.4193649177559569
1.4067520883008093
1.394360845420137
1.382114343236652
1.3695656778097787
1.3574010266094136
1.3472190484823783
1.3401266570397588
1.3362904030794565
1.3339691340493456
1.3329737106023125
1.332378434932479
1.3336151582300533
1.3439821826638911
1.3847467746720115
1.5128190105070365
1.311228574326675
-1.58047689133566
0.04739047736488486
0.6980053194224735
0.9774400558679528
1.107472477803689
1.1632050135762875
1.1858237251462536
1.1956163470027006
1.2065964018679642
1.2193889185877531
1.2341846234496776
1.2524323436423501
1.2747464237103296
1.303733107879947
1.3445202603449764
1.309170807424296
1.3729694814473241
1.4155132123991487
1.4116798549801435
1.4137924738700975
1.3990489049626222
1.3850616873633212
1.3752011716871595
1.36741361376807
1.3610052290532055
1.3563809136947753
1.3531458350500098
1.3520919520963337
1.353917981675933
1.3581005664627188
1.3668297313387974
1.3800347060542153
1.3939275372048558
1.4060152715073397
1.4257089096447597
1.4951748261577098
1.3630776852425772
1.463748638440435
-0.7508490604974389
-0.8243354712565224
-0.7408594283285411
0.39732388917600275
0.861480944559148
1.1276317815575483
1.2024141007941052
1.1545311706075942
1.1305063512910356
1.1189941549513065
1.1143261957696877
1.1171268206178018
1.1228205384734415
1.1296464115732858
1.1348303135788984
1.1371804136793695
1.135445912385083
1.1309327853048998
1.230589631983113
1.261841632327016
1.265320697778548
1.2663621574439847
1.2677984651174121
1.2680639929579711
1.2687278686594188
1.2693080476904093
1.270960843448425
1.2738818188378873
1.279952085653808
1.289237116370254
1.3033813655895397
1.3228208712498517
1.351708886796354
1.397586262138684
1.4703741433284367
1.4784824907723497
1.4564296509799977
1.34752128987652
1.3515121207439238
1.2545702778624
)
;

boundaryField
{
    ".*"
    {
        type            zeroGradient;
    }
}


// ************************************************************************* //
