/*--------------------------------*- C++ -*----------------------------------*\
  =========                 |
  \\      /  F ield         | OpenFOAM: The Open Source CFD Toolbox
   \\    /   O peration     | Website:  https://openfoam.org
    \\  /    A nd           | Version:  6
     \\/     M anipulation  |
\*---------------------------------------------------------------------------*/
FoamFile
{
    version     2.0;
    format      ascii;
    class       volScalarField;
    location    "3000";
    object      nut;
}
// * * * * * * * * * * * * * * * * * * * * * * * * * * * * * * * * * * * * * //

dimensions      [0 2 -1 0 0 0 0];

internalField   nonuniform List<scalar> 
459
(
0.00113839
0.00124672
0.00127092
0.00133374
0.00139265
0.00144853
0.00150428
0.00155537
0.00158961
0.00160119
0.00158505
0.00153807
0.00145924
0.00135305
0.00123275
0.00051502
0.000622291
0.000700131
0.000698891
0.000676157
0.00064531
0.000605573
0.000565937
0.000529924
0.000497938
0.000469613
0.000444443
0.000422067
0.000401967
0.000383444
0.000365604
0.000347202
0.000335738
0.000307674
0.00154908
0.00387802
0.00374695
0.0043733
0.00499191
0.00560149
0.00611839
0.00652609
0.00688647
0.00717101
0.00734315
0.00736551
0.00718127
0.0066435
0.00515397
0.00126664
0.000738751
0.000547137
0.0011524
0.00160854
0.00194293
0.00212238
0.00211374
0.00168338
0.00144789
0.00128081
0.00115324
0.00105222
0.000970273
0.000899602
0.000833829
0.000769852
0.000712908
0.000662402
0.000788995
0.0004077
0.0018882
0.00530279
0.00467696
0.00584759
0.00644454
0.00689183
0.00724022
0.00753694
0.00785042
0.00816622
0.00844412
0.00863816
0.00869515
0.00852247
0.00786098
0.0059492
0.00129912
0.00105887
0.00155151
0.00201267
0.00243436
0.00272244
0.00264591
0.000859113
0.000758075
0.000676835
0.000611309
0.000557972
0.000514092
0.000477717
0.000447605
0.000423288
0.000457646
0.00053014
0.00089517
0.000476001
0.00221124
0.00674514
0.00473032
0.0061925
0.00670614
0.00690272
0.00705111
0.00723774
0.0075103
0.00785195
0.00820972
0.00852745
0.0087442
0.00878179
0.0085812
0.00783601
0.00533573
0.00153197
0.00191356
0.00249299
0.00306548
0.00352179
0.00379429
0.00353951
0.000966395
0.000879903
0.00081821
0.000770919
0.000730206
0.000692916
0.00065695
0.000619163
0.000575351
0.000539279
0.000556196
0.00104997
0.00052663
0.00253894
0.00857546
0.0052385
0.00601982
0.0066604
0.00672949
0.0067185
0.00686003
0.00710935
0.00747188
0.00787718
0.00824989
0.00849977
0.00857263
0.00846228
0.00813305
0.00738668
0.0061348
0.00570865
0.00557805
0.00553532
0.00549659
0.00541547
0.0051743
0.00433343
0.00393364
0.00370093
0.00352012
0.00333004
0.00305518
0.00269262
0.00226146
0.00179016
0.00132368
0.000977979
0.00102916
0.000690755
0.000641312
0.000766306
0.000858352
0.00288488
0.0105598
0.00717253
0.00614898
0.0066134
0.00672778
0.00668839
0.00677862
0.00697374
0.00730691
0.0077382
0.00815369
0.00842446
0.00847207
0.00830807
0.00801995
0.00770171
0.00740116
0.00722947
0.00707279
0.00687144
0.00663511
0.00637532
0.00607344
0.00567082
0.00532818
0.00503625
0.00476437
0.0044918
0.00419223
0.00380994
0.00333129
0.00276009
0.00213675
0.00159447
0.00118514
0.000926874
0.000816859
0.00118209
0.000900552
0.00319204
0.0119081
0.00987619
0.00791799
0.00758265
0.00731076
0.00702245
0.00690739
0.00703133
0.00738572
0.00787576
0.0083392
0.00861193
0.00860412
0.0083509
0.00801565
0.00780554
0.00777943
0.00777402
0.00762426
0.00732426
0.00693941
0.00651679
0.0060812
0.00565469
0.00528417
0.00496201
0.00467112
0.0044063
0.00417146
0.00396331
0.00363474
0.00317221
0.0026187
0.00210131
0.00163786
0.00133387
0.00127391
0.00133681
0.0010389
0.0032449
0.0103922
0.00938616
0.00867972
0.00799992
0.00732124
0.00690314
0.00685313
0.00715784
0.00771457
0.0083471
0.00884476
0.00904071
0.0088841
0.00847883
0.00808017
0.00793106
0.00796259
0.00783301
0.00746355
0.00694115
0.00635366
0.00577054
0.00524768
0.00481732
0.00447714
0.00420184
0.00397592
0.00379809
0.0036755
0.00361562
0.00357854
0.00330352
0.00293473
0.00262341
0.0024916
0.0026654
0.00324194
0.00407482
0.00159992
0.00315307
0.00371737
0.00409418
0.00418651
0.00440151
0.00487898
0.00563387
0.00661284
0.00768679
0.00867827
0.00939919
0.00969351
0.0095201
0.00899758
0.0084103
0.00805873
0.00782706
0.00754313
0.00707189
0.00643265
0.00572347
0.0050455
0.00447187
0.00402823
0.00369761
0.00344455
0.00323896
0.00306357
0.00290888
0.00276792
0.00263506
0.00251445
0.0024203
0.00235877
0.0023493
0.00237865
0.00237467
0.00227359
0.00211225
0.0014722
0.00144576
0.00368091
0.0066834
0.00865323
0.0099616
0.0107694
0.011116
0.0110708
0.0107128
0.0101306
0.00928722
0.00842625
0.00776936
0.00729984
0.00681115
0.00620708
0.00551788
0.00481787
0.00417741
0.00366032
0.00328
0.00300888
0.00281132
0.00266029
0.00254016
0.00244393
0.00236988
0.00231977
0.00229877
0.00230457
0.00232515
0.00235707
0.00238903
0.00238957
0.00231134
0.00213817
0.00188131
0.00118672
0.00219169
0.00678718
0.00937458
0.0100645
0.0102855
0.0101507
0.00968879
0.00902144
0.00826449
0.00752437
0.00682197
0.00622751
0.00572729
0.00521996
0.00466875
0.00411682
0.00361147
0.00318289
0.00284214
0.00258079
0.00239344
0.00226282
0.00217513
0.00212211
0.00209873
0.00210067
0.00212236
0.00215904
0.00221879
0.0022966
0.00238843
0.00248648
0.00257401
0.00263649
0.00262484
0.00262669
0.00237234
0.00120137
0.001963
0.00208211
0.00216803
0.00233835
0.00224687
0.00216134
0.00209127
0.00198953
0.0018519
0.00168653
0.00150215
0.00131486
0.00114703
0.00101219
0.00091062
0.000835668
0.00078026
0.000739502
0.000710774
0.000692756
0.000684405
0.000684254
0.000689994
0.000700765
0.000716053
0.000735637
0.000759535
0.000788037
0.00082185
0.000861924
0.000907635
0.000959467
0.00101782
0.0010832
0.00115554
0.00125182
0.00127888
0.0012471
0.00116344
0.00107334
)
;

boundaryField
{
    floor
    {
        type            nutkWallFunction;
        Cmu             0.09;
        kappa           0.41;
        E               9.8;
        value           nonuniform List<scalar> 
29
(
0.000147761
6.16338e-05
7.51296e-05
8.47437e-05
8.45916e-05
8.1797e-05
7.7987e-05
7.30462e-05
6.80786e-05
6.35281e-05
5.94544e-05
5.58196e-05
5.25667e-05
4.96554e-05
4.70236e-05
4.45832e-05
4.22185e-05
3.97638e-05
3.82259e-05
3.44317e-05
3.44316e-05
4.77752e-05
5.66409e-05
6.31092e-05
0.000147761
6.16337e-05
6.57075e-05
0.00012762
0.000181707
)
;
    }
    ceiling
    {
        type            nutkWallFunction;
        Cmu             0.09;
        kappa           0.41;
        E               9.8;
        value           nonuniform List<scalar> 
43
(
0.000229174
0.000242113
0.000251399
0.000269839
0.000260074
0.000250876
0.000243306
0.000232255
0.000217202
0.000198949
0.000178364
0.000157164
0.000137879
0.000122152
0.000110148
0.00010119
9.45078e-05
8.95567e-05
8.60476e-05
8.3838e-05
8.28116e-05
8.27931e-05
8.34988e-05
8.4821e-05
8.66937e-05
8.90855e-05
9.19941e-05
9.5449e-05
9.95287e-05
0.000104338
0.000109793
0.00011594
0.000122815
0.000130462
0.000138866
0.000149958
0.000153057
0.000149416
0.00013978
0.000129313
0.000356018
0.000414149
0.000253744
)
;
    }
    sWall
    {
        type            nutkWallFunction;
        Cmu             0.09;
        kappa           0.41;
        E               9.8;
        value           uniform 0.000229239;
    }
    nWall
    {
        type            nutkWallFunction;
        Cmu             0.09;
        kappa           0.41;
        E               9.8;
        value           nonuniform List<scalar> 6(0.000103913 0.000108953 0.000125291 0.000142481 0.00014417 0.000129322);
    }
    sideWalls
    {
        type            empty;
    }
    glass1
    {
        type            nutkWallFunction;
        Cmu             0.09;
        kappa           0.41;
        E               9.8;
        value           nonuniform List<scalar> 9(0.000137007 0.000183881 0.00022153 0.00025671 0.000291841 0.000328413 0.000360505 0.000366006 0.000356482);
    }
    glass2
    {
        type            nutkWallFunction;
        Cmu             0.09;
        kappa           0.41;
        E               9.8;
        value           nonuniform List<scalar> 2(0.000189411 0.000175081);
    }
    sun
    {
        type            nutkWallFunction;
        Cmu             0.09;
        kappa           0.41;
        E               9.8;
        value           nonuniform List<scalar> 
14
(
0.000136879
0.000149366
0.00015214
0.000159312
0.000166004
0.000172322
0.000178599
0.000184328
0.000188157
0.000189449
0.000187647
0.00018239
0.000173529
0.000161508
)
;
    }
    heatsource1
    {
        type            nutkWallFunction;
        Cmu             0.09;
        kappa           0.41;
        E               9.8;
        value           nonuniform List<scalar> 3(7.74932e-05 9.28165e-05 0.00010391);
    }
    heatsource2
    {
        type            nutkWallFunction;
        Cmu             0.09;
        kappa           0.41;
        E               9.8;
        value           nonuniform List<scalar> 4(0.000151642 8.94664e-05 8.94664e-05 0.000155356);
    }
    Table_master
    {
        type            nutkWallFunction;
        Cmu             0.09;
        kappa           0.41;
        E               9.8;
        value           nonuniform List<scalar> 9(0.000104 9.18173e-05 8.18824e-05 7.37653e-05 6.70803e-05 6.1522e-05 5.687e-05 5.29857e-05 4.9825e-05);
    }
    Table_slave
    {
        type            nutkWallFunction;
        Cmu             0.09;
        kappa           0.41;
        E               9.8;
        value           nonuniform List<scalar> 9(0.000116755 0.000106486 9.90897e-05 9.3376e-05 8.84239e-05 8.38594e-05 7.9429e-05 7.47427e-05 6.92657e-05);
    }
    inlet
    {
        type            calculated;
        value           uniform 0.000100623;
    }
    outlet
    {
        type            calculated;
        value           nonuniform List<scalar> 2(0.001963 0.00208211);
    }
}


// ************************************************************************* //
