/*--------------------------------*- C++ -*----------------------------------*\
  =========                 |
  \\      /  F ield         | OpenFOAM: The Open Source CFD Toolbox
   \\    /   O peration     | Website:  https://openfoam.org
    \\  /    A nd           | Version:  6
     \\/     M anipulation  |
\*---------------------------------------------------------------------------*/
FoamFile
{
    version     2.0;
    format      ascii;
    class       volVectorField;
    location    "3000";
    object      U;
}
// * * * * * * * * * * * * * * * * * * * * * * * * * * * * * * * * * * * * * //

dimensions      [0 1 -1 0 0 0 0];

internalField   nonuniform List<vector> 
459
(
(0.0335306 0.0881858 0)
(-0.171579 0.0264122 0)
(-0.196657 0.0178305 0)
(-0.227329 0.0118769 0)
(-0.248938 0.00535718 0)
(-0.260515 -0.00146752 0)
(-0.260601 -0.00860485 0)
(-0.248531 -0.0160152 0)
(-0.225234 -0.0229565 0)
(-0.192754 -0.0283295 0)
(-0.154531 -0.0313001 0)
(-0.114343 -0.031578 0)
(-0.0757619 -0.0295092 0)
(-0.0438496 -0.026513 0)
(-0.0337174 -0.0243744 0)
(-0.00273744 0.00864122 0)
(-0.0278473 -0.0196925 0)
(-0.00207792 -0.029632 0)
(0.0222703 -0.0220815 0)
(0.0397133 -0.0149196 0)
(0.0529216 -0.00956541 0)
(0.0608601 -0.00568419 0)
(0.0648302 -0.00365147 0)
(0.0665873 -0.0027839 0)
(0.0674656 -0.00236766 0)
(0.0680064 -0.00209845 0)
(0.0682843 -0.00187634 0)
(0.0682315 -0.00161127 0)
(0.067632 -0.0011216 0)
(0.0658928 -8.38897e-06 0)
(0.0617547 0.0022805 0)
(0.05386 0.00467228 0)
(0.0466786 0.00662493 0)
(-0.0143142 0.0229795 0)
(0.21001 0.180208 0)
(-0.158758 0.0695574 0)
(-0.157272 0.0528758 0)
(-0.188659 0.040317 0)
(-0.209853 0.0262245 0)
(-0.221515 0.0106584 0)
(-0.222138 -0.0064759 0)
(-0.211045 -0.0242833 0)
(-0.189741 -0.0403166 0)
(-0.160588 -0.052143 0)
(-0.127061 -0.0581976 0)
(-0.0926158 -0.0582096 0)
(-0.060395 -0.0527825 0)
(-0.0338194 -0.0434659 0)
(-0.0171666 -0.0321467 0)
(-0.0035334 -0.0141715 0)
(-0.00396989 0.0170918 0)
(0.0729311 0.036361 0)
(0.0316755 -0.020778 0)
(0.0393863 -0.0340607 0)
(0.0514849 -0.0293954 0)
(0.0609758 -0.020528 0)
(0.0674532 -0.0122699 0)
(0.0701343 -0.00507473 0)
(0.0705509 -0.00107649 0)
(0.0704409 0.000594172 0)
(0.0705184 0.00134149 0)
(0.0706977 0.00179012 0)
(0.0708269 0.00216664 0)
(0.0708564 0.00264781 0)
(0.0707296 0.00360245 0)
(0.0698784 0.00599079 0)
(0.0657149 0.012629 0)
(0.0552663 0.0181284 0)
(0.0505986 0.021768 0)
(-0.055502 0.0495115 0)
(0.371286 0.269163 0)
(-0.173893 0.110231 0)
(-0.117604 0.0850783 0)
(-0.147473 0.0628901 0)
(-0.165959 0.0397962 0)
(-0.176262 0.0146478 0)
(-0.175869 -0.0129754 0)
(-0.16394 -0.0411439 0)
(-0.143151 -0.065541 0)
(-0.116466 -0.0825163 0)
(-0.087402 -0.090185 0)
(-0.0586482 -0.0888568 0)
(-0.0322564 -0.0796386 0)
(-0.0103069 -0.0643857 0)
(0.006131 -0.0436422 0)
(0.0174617 -0.0181119 0)
(0.0233385 0.018665 0)
(0.120677 -0.0376887 0)
(0.0793417 -0.0449833 0)
(0.0735794 -0.0427389 0)
(0.0756647 -0.0351588 0)
(0.0772943 -0.0256006 0)
(0.0784189 -0.0173463 0)
(0.0768715 -0.0137806 0)
(0.072299 -0.00963492 0)
(0.0690944 -0.00738087 0)
(0.0676902 -0.00608681 0)
(0.0671201 -0.00525915 0)
(0.0668591 -0.00467898 0)
(0.0669256 -0.0041361 0)
(0.0678198 -0.00324186 0)
(0.0708233 8.37905e-05 0)
(0.0684655 0.0182093 0)
(0.053757 0.0307552 0)
(0.057173 0.0389301 0)
(-0.0923334 0.0766495 0)
(0.516137 0.340478 0)
(-0.206883 0.146151 0)
(-0.0764549 0.112121 0)
(-0.10374 0.0816281 0)
(-0.116462 0.0517066 0)
(-0.122474 0.018377 0)
(-0.117377 -0.019641 0)
(-0.102341 -0.0581151 0)
(-0.0817317 -0.0895414 0)
(-0.0586319 -0.109893 0)
(-0.0360556 -0.11774 0)
(-0.0151521 -0.114645 0)
(0.00370324 -0.10192 0)
(0.0193942 -0.0824303 0)
(0.0330205 -0.0583954 0)
(0.0479335 -0.0311705 0)
(0.0706061 -0.0011689 0)
(0.103135 0.0130326 0)
(0.109103 -0.0293261 0)
(0.0934401 -0.0389636 0)
(0.0840437 -0.0363926 0)
(0.0794525 -0.0307511 0)
(0.0763517 -0.0233466 0)
(0.0747672 -0.0143237 0)
(0.0768342 -0.00852255 0)
(0.0820149 -0.00654894 0)
(0.086302 -0.00539722 0)
(0.0891262 -0.00448801 0)
(0.0907231 -0.00338917 0)
(0.0904516 -0.00182386 0)
(0.0872414 0.000415525 0)
(0.0798362 0.00362569 0)
(0.0652133 0.00841427 0)
(0.052872 0.0298523 0)
(0.040169 0.0472903 0)
(0.0606762 0.0603723 0)
(-0.135458 0.0998543 0)
(0.640276 0.395594 0)
(-0.247418 0.175393 0)
(-0.0367557 0.127088 0)
(-0.0580389 0.0916959 0)
(-0.0621898 0.0576695 0)
(-0.0598717 0.0178131 0)
(-0.0432211 -0.0302962 0)
(-0.0239759 -0.0762974 0)
(-0.00536437 -0.11055 0)
(0.0111908 -0.130548 0)
(0.0238651 -0.135712 0)
(0.0338795 -0.129746 0)
(0.0416145 -0.115032 0)
(0.0479539 -0.0942431 0)
(0.0541121 -0.0700627 0)
(0.061992 -0.045656 0)
(0.0742968 -0.0270042 0)
(0.0851223 -0.0257449 0)
(0.0861464 -0.034347 0)
(0.0790135 -0.0346157 0)
(0.0703206 -0.0305513 0)
(0.0636202 -0.0255068 0)
(0.0588876 -0.019864 0)
(0.0564098 -0.0136515 0)
(0.0567629 -0.00777855 0)
(0.0595431 -0.00497524 0)
(0.0625742 -0.00383121 0)
(0.0653889 -0.00276909 0)
(0.0678309 -0.000759924 0)
(0.0694285 0.00269523 0)
(0.0689368 0.00762916 0)
(0.0658274 0.014174 0)
(0.0594059 0.0230587 0)
(0.051741 0.0395101 0)
(0.0401508 0.0591003 0)
(0.0682865 0.0804167 0)
(-0.0351212 0.112302 0)
(0.0475374 0.0269245 0)
(-0.068957 -0.0377224 0)
(-0.286074 -0.0613034 0)
(0.729538 0.441307 0)
(-0.286622 0.194645 0)
(-0.00697219 0.121338 0)
(-0.00978212 0.0896025 0)
(-0.000938914 0.0543627 0)
(0.0190563 0.005545 0)
(0.048808 -0.0499965 0)
(0.068506 -0.0941613 0)
(0.0807983 -0.123839 0)
(0.086378 -0.139026 0)
(0.0866028 -0.141056 0)
(0.0832701 -0.132517 0)
(0.0778799 -0.11622 0)
(0.0720159 -0.0950862 0)
(0.0671223 -0.0718844 0)
(0.0644637 -0.0496662 0)
(0.0647655 -0.0325188 0)
(0.0649339 -0.0254465 0)
(0.0610363 -0.025272 0)
(0.0532637 -0.0249392 0)
(0.0447188 -0.0226093 0)
(0.0378176 -0.019397 0)
(0.0330676 -0.0158416 0)
(0.0307309 -0.012096 0)
(0.0308972 -0.00893637 0)
(0.0330669 -0.00773744 0)
(0.0361356 -0.00743896 0)
(0.0396542 -0.00671265 0)
(0.0433929 -0.00450283 0)
(0.0471513 4.86147e-05 0)
(0.0500647 0.00696294 0)
(0.0513247 0.0158202 0)
(0.0512713 0.026942 0)
(0.0514666 0.0422491 0)
(0.0491198 0.0613306 0)
(0.0764504 0.0860231 0)
(0.0487296 0.10503 0)
(0.0975298 0.0696198 0)
(0.122213 0.0452732 0)
(-0.138278 -0.0098979 0)
(0.786246 0.483112 0)
(-0.304425 0.179124 0)
(0.0239458 0.0651669 0)
(0.0576139 0.0551343 0)
(0.0837446 0.0294879 0)
(0.127612 -0.0244232 0)
(0.156218 -0.0728099 0)
(0.17002 -0.107262 0)
(0.171021 -0.127639 0)
(0.161895 -0.135308 0)
(0.145795 -0.132095 0)
(0.125829 -0.120439 0)
(0.104697 -0.103115 0)
(0.0846427 -0.082785 0)
(0.0672633 -0.0616682 0)
(0.0535431 -0.0422169 0)
(0.0437112 -0.0273905 0)
(0.0361499 -0.0195941 0)
(0.0285737 -0.0172689 0)
(0.0204445 -0.0165617 0)
(0.0128941 -0.0154208 0)
(0.0070068 -0.0139619 0)
(0.00310708 -0.0124711 0)
(0.00133049 -0.011075 0)
(0.00162413 -0.010225 0)
(0.0034808 -0.0104075 0)
(0.00620204 -0.0109147 0)
(0.00952462 -0.0108086 0)
(0.0134851 -0.00915032 0)
(0.0182117 -0.00485904 0)
(0.0249241 0.00298469 0)
(0.0307197 0.0127198 0)
(0.0363291 0.0239358 0)
(0.0437125 0.0375139 0)
(0.0511192 0.0530904 0)
(0.0762809 0.0731732 0)
(0.0886087 0.0803695 0)
(0.125414 0.0521228 0)
(0.167975 0.0427463 0)
(-0.0318806 0.0967257 0)
(0.89421 0.482618 0)
(-0.0564377 0.157564 0)
(0.119425 -0.0235327 0)
(0.207526 -0.0594639 0)
(0.253251 -0.0727512 0)
(0.278271 -0.0894449 0)
(0.287148 -0.10491 0)
(0.27931 -0.114728 0)
(0.256941 -0.117746 0)
(0.224306 -0.114169 0)
(0.186124 -0.104831 0)
(0.146514 -0.0909797 0)
(0.108787 -0.0744591 0)
(0.0752702 -0.0570671 0)
(0.0471968 -0.0400345 0)
(0.0253614 -0.0251346 0)
(0.00984539 -0.0147122 0)
(-0.000907268 -0.00973189 0)
(-0.00891316 -0.00874491 0)
(-0.0156477 -0.00905065 0)
(-0.0212643 -0.00935301 0)
(-0.0255478 -0.00957957 0)
(-0.0284663 -0.00985839 0)
(-0.0300483 -0.0102952 0)
(-0.0304476 -0.0110628 0)
(-0.0300535 -0.0122117 0)
(-0.0292616 -0.0133837 0)
(-0.0281724 -0.0141008 0)
(-0.0265995 -0.0138436 0)
(-0.0240951 -0.0119998 0)
(-0.0195039 -0.00775999 0)
(-0.00894213 -0.000448883 0)
(-0.000609181 0.00838585 0)
(0.0106775 0.0170802 0)
(0.0222998 0.0247838 0)
(0.0435862 0.03351 0)
(0.0621145 0.0256571 0)
(0.0809256 -0.00565656 0)
(0.142495 0.0450849 0)
(-0.456167 0.222335 0)
(1.04651 0.427026 0)
(0.49574 0.278784 0)
(0.514827 0.173036 0)
(0.549866 0.0950523 0)
(0.529907 0.0412585 0)
(0.482202 -0.00144489 0)
(0.427051 -0.0327289 0)
(0.366734 -0.0518067 0)
(0.30207 -0.0599519 0)
(0.236453 -0.0596692 0)
(0.173985 -0.0536576 0)
(0.117594 -0.043927 0)
(0.069565 -0.0326735 0)
(0.0304038 -0.021601 0)
(-0.000582975 -0.011587 0)
(-0.021568 -0.00486688 0)
(-0.0335646 -0.00203683 0)
(-0.0409369 -0.00162055 0)
(-0.0462205 -0.00254284 0)
(-0.050739 -0.00388314 0)
(-0.0546894 -0.00521577 0)
(-0.0580698 -0.00651508 0)
(-0.0609299 -0.00781185 0)
(-0.0633892 -0.00912344 0)
(-0.0656647 -0.0104605 0)
(-0.0680866 -0.0117343 0)
(-0.0709966 -0.0126722 0)
(-0.0746866 -0.0128706 0)
(-0.0794808 -0.0118055 0)
(-0.0858741 -0.00879987 0)
(-0.0945725 -0.00302376 0)
(-0.105277 0.00606685 0)
(-0.116275 0.018043 0)
(-0.133638 0.0332245 0)
(-0.161073 0.05138 0)
(-0.201003 0.0704184 0)
(-0.257353 0.0849976 0)
(-0.320743 0.0921272 0)
(-0.392245 0.0925656 0)
(-0.660694 0.086862 0)
(-0.181047 -0.0201924 0)
(0.100523 -0.0349137 0)
(0.177228 -0.0546587 0)
(0.164348 -0.0473277 0)
(0.145233 -0.0343023 0)
(0.121249 -0.0224354 0)
(0.0893197 -0.012284 0)
(0.0535492 -0.00438292 0)
(0.0187313 0.00101986 0)
(-0.0140507 0.00454704 0)
(-0.0376694 0.00572432 0)
(-0.0548447 0.00566692 0)
(-0.0658539 0.00456934 0)
(-0.0716989 0.0024157 0)
(-0.0750248 -0.000127887 0)
(-0.0773752 -0.00274379 0)
(-0.0795522 -0.00538414 0)
(-0.0819903 -0.00780512 0)
(-0.084815 -0.00972682 0)
(-0.0878169 -0.0112086 0)
(-0.0909632 -0.0123158 0)
(-0.0943769 -0.0130832 0)
(-0.098223 -0.0135225 0)
(-0.102662 -0.0135476 0)
(-0.107777 -0.0129188 0)
(-0.113506 -0.0112411 0)
(-0.119593 -0.00800496 0)
(-0.125554 -0.00264821 0)
(-0.130656 0.005202 0)
(-0.134482 0.0158761 0)
(-0.137519 0.0303933 0)
(-0.140355 0.0492073 0)
(-0.144131 0.0712251 0)
(-0.14949 0.0917899 0)
(-0.152898 0.099454 0)
(-0.135027 0.0722726 0)
(-0.0813794 -0.0315678 0)
(-0.289046 -0.225897 0)
(0.0346468 0.198502 0)
(0.0135355 0.0642747 0)
(-0.0322696 0.0121882 0)
(-0.0556035 0.0112894 0)
(-0.0736538 0.0173014 0)
(-0.0869515 0.0218378 0)
(-0.0958307 0.0255622 0)
(-0.102581 0.0286702 0)
(-0.107423 0.0305667 0)
(-0.110627 0.0309972 0)
(-0.111994 0.0304623 0)
(-0.112039 0.0301655 0)
(-0.110999 0.0303145 0)
(-0.109448 0.0309739 0)
(-0.107993 0.0323232 0)
(-0.106904 0.0341885 0)
(-0.106324 0.0360741 0)
(-0.106302 0.0374012 0)
(-0.106756 0.0375671 0)
(-0.107702 0.0366611 0)
(-0.109109 0.0352913 0)
(-0.110953 0.0336244 0)
(-0.113197 0.0317566 0)
(-0.115783 0.0297726 0)
(-0.118603 0.0277721 0)
(-0.121475 0.0258601 0)
(-0.124104 0.0241173 0)
(-0.125942 0.0227664 0)
(-0.126066 0.0232665 0)
(-0.123143 0.0269519 0)
(-0.11555 0.0350091 0)
(-0.102126 0.0485486 0)
(-0.0832506 0.0673375 0)
(-0.0602124 0.0863474 0)
(-0.0361056 0.0971682 0)
(0.00747139 0.0795455 0)
(0.144427 0.00333672 0)
(-0.207538 -0.13867 0)
(-0.0932181 -0.347404 0)
(-0.447563 -0.138567 0)
(-0.334143 0.0447495 0)
(-0.291711 -0.0445453 0)
(-0.250729 -0.0513816 0)
(-0.239301 -0.0441192 0)
(-0.231242 -0.0371556 0)
(-0.221918 -0.0327798 0)
(-0.210275 -0.0306152 0)
(-0.196595 -0.0307859 0)
(-0.181865 -0.033842 0)
(-0.167504 -0.0397813 0)
(-0.154752 -0.0478364 0)
(-0.144232 -0.0567319 0)
(-0.136031 -0.0659086 0)
(-0.129974 -0.0750907 0)
(-0.12566 -0.0838574 0)
(-0.122625 -0.0917439 0)
(-0.120533 -0.0982676 0)
(-0.119202 -0.102937 0)
(-0.118606 -0.105406 0)
(-0.118752 -0.105758 0)
(-0.11956 -0.104673 0)
(-0.120857 -0.102373 0)
(-0.122472 -0.0990213 0)
(-0.124212 -0.0946993 0)
(-0.125822 -0.0893741 0)
(-0.126951 -0.0829157 0)
(-0.127147 -0.0750489 0)
(-0.12581 -0.0655438 0)
(-0.121811 -0.0550378 0)
(-0.112977 -0.0433743 0)
(-0.096337 -0.0300404 0)
(-0.06978 -0.0140478 0)
(-0.0348118 0.00533753 0)
(0.0247427 0.0302901 0)
(0.0751731 0.0309141 0)
(0.123777 0.00905834 0)
(0.176907 -0.0318948 0)
(-0.177193 -0.100229 0)
)
;

boundaryField
{
    floor
    {
        type            noSlip;
    }
    ceiling
    {
        type            noSlip;
    }
    sWall
    {
        type            noSlip;
    }
    nWall
    {
        type            noSlip;
    }
    sideWalls
    {
        type            empty;
    }
    glass1
    {
        type            noSlip;
    }
    glass2
    {
        type            noSlip;
    }
    sun
    {
        type            noSlip;
    }
    heatsource1
    {
        type            noSlip;
    }
    heatsource2
    {
        type            noSlip;
    }
    Table_master
    {
        type            noSlip;
    }
    Table_slave
    {
        type            noSlip;
    }
    inlet
    {
        type            fixedValue;
        value           uniform (0.277164 -0.114805 0);
    }
    outlet
    {
        type            zeroGradient;
    }
}


// ************************************************************************* //
