/*--------------------------------*- C++ -*----------------------------------*\
  =========                 |
  \\      /  F ield         | OpenFOAM: The Open Source CFD Toolbox
   \\    /   O peration     | Website:  https://openfoam.org
    \\  /    A nd           | Version:  6
     \\/     M anipulation  |
\*---------------------------------------------------------------------------*/
FoamFile
{
    version     2.0;
    format      ascii;
    class       volScalarField;
    location    "2100";
    object      nut;
}
// * * * * * * * * * * * * * * * * * * * * * * * * * * * * * * * * * * * * * //

dimensions      [0 2 -1 0 0 0 0];

internalField   nonuniform List<scalar> 
459
(
0.0011341
0.00124175
0.00126531
0.00132764
0.001386
0.00144124
0.00149617
0.00154712
0.00158164
0.00159397
0.00157905
0.00153382
0.00145758
0.0013554
0.00124128
0.000508827
0.00061507
0.000690183
0.000686134
0.000661795
0.00063
0.000590263
0.000551043
0.000515552
0.000484116
0.000456334
0.000431696
0.000409822
0.00039021
0.000372172
0.000354837
0.000337024
0.000326684
0.00030034
0.00154533
0.00386686
0.00373728
0.00436323
0.0049793
0.00558741
0.00610665
0.00651161
0.00686944
0.00715209
0.00732232
0.00734117
0.00714809
0.00658725
0.00504282
0.00127533
0.000716531
0.000543553
0.00113346
0.00157431
0.00189451
0.00206293
0.00205136
0.00163935
0.00141028
0.00124692
0.00112171
0.00102228
0.000941408
0.000871765
0.000807144
0.00074466
0.000689133
0.000639164
0.000764128
0.000401058
0.00188491
0.0052877
0.00466526
0.00585145
0.00645434
0.00690402
0.00725272
0.00754335
0.00784946
0.00815825
0.00842998
0.00861836
0.00866875
0.00849181
0.00783724
0.00594393
0.00129599
0.00105911
0.00153734
0.00197814
0.00237754
0.00264706
0.00256887
0.000840663
0.000740929
0.000660966
0.000596604
0.000544298
0.000501327
0.00046574
0.000436285
0.000412436
0.000444126
0.000510805
0.000865603
0.000470068
0.00220846
0.00673035
0.00471535
0.00620421
0.00673494
0.00693469
0.00707806
0.00725239
0.00751339
0.00784513
0.00819503
0.00850752
0.00872092
0.00876183
0.0085664
0.00783924
0.00542469
0.0015302
0.00190684
0.00247092
0.00301885
0.00344861
0.00369965
0.00344522
0.000945505
0.00085848
0.000796147
0.000748443
0.000707718
0.000670741
0.000635266
0.000598224
0.000555545
0.000521554
0.000537064
0.00102264
0.00052051
0.00253665
0.00856114
0.00522149
0.00602142
0.00669091
0.00676636
0.00674391
0.00686945
0.00710643
0.00745827
0.00785585
0.0082257
0.00847875
0.00855746
0.00845156
0.00812432
0.00738175
0.00610319
0.00565674
0.00550536
0.00544221
0.00538582
0.00529065
0.00504132
0.00420928
0.00380724
0.00357043
0.00338703
0.00319738
0.00292882
0.00257901
0.00216553
0.00171571
0.00127151
0.000940588
0.000990529
0.000680534
0.000641364
0.000764972
0.000856061
0.002883
0.0105446
0.00715232
0.00613082
0.00661142
0.006759
0.00669583
0.00677946
0.00696534
0.00728638
0.00770828
0.00812182
0.00839971
0.00845881
0.00830183
0.0080074
0.0076678
0.00733548
0.00713615
0.00696079
0.0067478
0.0065036
0.00623691
0.0059267
0.00551354
0.00515855
0.00485444
0.0045718
0.00429151
0.00399086
0.00361875
0.00316236
0.00262559
0.00204248
0.00153523
0.00113294
0.000907016
0.000807834
0.00116944
0.000897099
0.00319069
0.0118932
0.00985408
0.00789235
0.00755449
0.00730867
0.00702648
0.00690611
0.00701711
0.00735618
0.00783544
0.00829843
0.00858203
0.00859016
0.00834443
0.00799343
0.00774219
0.00767219
0.00764548
0.00749216
0.0071944
0.00681097
0.00638579
0.00594161
0.00549983
0.00511028
0.00476797
0.00445862
0.00417897
0.00393346
0.00372083
0.00341875
0.00299959
0.00249341
0.00202477
0.00159129
0.00131821
0.0012481
0.00127485
0.00101841
0.00324378
0.0103877
0.00937719
0.00868819
0.00801932
0.00734232
0.00691372
0.00684596
0.00713042
0.00766991
0.00829435
0.0087974
0.0090101
0.0088719
0.00846709
0.00803262
0.00782297
0.00782078
0.00769934
0.00734101
0.00682594
0.00623995
0.00565083
0.00511432
0.00466446
0.00430252
0.00400722
0.00376599
0.00357842
0.00344956
0.00338353
0.00334856
0.00314938
0.00282322
0.00255173
0.00243666
0.002571
0.00301181
0.00389658
0.00154517
0.00315196
0.00371662
0.00409621
0.00418686
0.00439474
0.00485899
0.00559749
0.0065608
0.00762368
0.00861212
0.00934146
0.00965648
0.00950664
0.00899418
0.00836749
0.00796209
0.00769302
0.007405
0.00695038
0.0063239
0.00562062
0.00494015
0.00435635
0.0038979
0.00355146
0.00328532
0.00307213
0.00289612
0.00274789
0.00262009
0.00250667
0.00240714
0.0023329
0.00228668
0.00228478
0.00231676
0.00231968
0.00223672
0.00208245
0.0014353
0.00144979
0.0036669
0.00664192
0.00860112
0.00991006
0.0107251
0.0110829
0.0110488
0.0106999
0.0101138
0.00928279
0.00839798
0.00768658
0.00717972
0.00668069
0.00607895
0.00539514
0.00470862
0.00408623
0.00357303
0.00319004
0.00291485
0.00271463
0.00256391
0.00244771
0.00235866
0.00229393
0.00225384
0.00224144
0.00225623
0.00228843
0.00233675
0.00239686
0.00245101
0.00247531
0.00247116
0.00219399
0.00118778
0.00218618
0.00672723
0.00933474
0.0100357
0.0102715
0.0101525
0.00970339
0.00904035
0.00827656
0.0075148
0.00679269
0.00616913
0.00564388
0.00512698
0.00457485
0.00403051
0.00354232
0.00313677
0.00281732
0.00257316
0.00238981
0.00225783
0.00216579
0.00210675
0.00207684
0.00207267
0.00208951
0.00212313
0.00218065
0.00225767
0.00235096
0.00245484
0.00255729
0.00264523
0.00271912
0.00273501
0.00189312
0.00122599
0.00195895
0.00207796
0.00216367
0.00233455
0.00224623
0.00216231
0.00209408
0.00199427
0.00185846
0.00169471
0.0015115
0.00132403
0.00115402
0.00101613
0.000911852
0.0008351
0.000778719
0.000737379
0.000707881
0.000688435
0.000677789
0.000674975
0.00067843
0.000686861
0.000699883
0.000717355
0.00073934
0.00076614
0.000798424
0.000837081
0.000881579
0.000932411
0.000989903
0.00105442
0.0011257
0.00120783
0.00123004
0.0011214
0.00104596
0.00118657
)
;

boundaryField
{
    floor
    {
        type            nutkWallFunction;
        Cmu             0.09;
        kappa           0.41;
        E               9.8;
        value           nonuniform List<scalar> 
29
(
0.000148742
6.08444e-05
7.42304e-05
8.35222e-05
8.30245e-05
8.00253e-05
7.60875e-05
7.11319e-05
6.62008e-05
6.17013e-05
5.76837e-05
5.4106e-05
5.09104e-05
4.80538e-05
4.54762e-05
4.30907e-05
4.07841e-05
3.83987e-05
3.70065e-05
3.34328e-05
3.34327e-05
4.69034e-05
5.58776e-05
6.23318e-05
0.000148742
6.08443e-05
6.52542e-05
0.000127648
0.000181508
)
;
    }
    ceiling
    {
        type            nutkWallFunction;
        Cmu             0.09;
        kappa           0.41;
        E               9.8;
        value           nonuniform List<scalar> 
43
(
0.000228732
0.000241663
0.000250928
0.00026943
0.000260005
0.000250981
0.000243611
0.000232772
0.000217923
0.000199858
0.000179416
0.000158211
0.00013869
0.000122616
0.000110296
0.000101123
9.43222e-05
8.92988e-05
8.56941e-05
8.33079e-05
8.19981e-05
8.16515e-05
8.2077e-05
8.31143e-05
8.47134e-05
8.68535e-05
8.95377e-05
9.2797e-05
9.67054e-05
0.000101361
0.000106689
0.000112737
0.000119532
0.000127104
0.000135408
0.000144903
0.000147459
0.00013491
0.000126116
0.000142455
0.000355905
0.000414075
0.000253151
)
;
    }
    sWall
    {
        type            nutkWallFunction;
        Cmu             0.09;
        kappa           0.41;
        E               9.8;
        value           uniform 0.000228797;
    }
    nWall
    {
        type            nutkWallFunction;
        Cmu             0.09;
        kappa           0.41;
        E               9.8;
        value           nonuniform List<scalar> 6(0.000103639 0.000108542 0.000122889 0.000142604 0.000147005 0.000142466);
    }
    sideWalls
    {
        type            empty;
    }
    glass1
    {
        type            nutkWallFunction;
        Cmu             0.09;
        kappa           0.41;
        E               9.8;
        value           nonuniform List<scalar> 9(0.000136507 0.00018346 0.000221168 0.00025641 0.000291598 0.000328217 0.000360366 0.000365891 0.000356368);
    }
    glass2
    {
        type            nutkWallFunction;
        Cmu             0.09;
        kappa           0.41;
        E               9.8;
        value           nonuniform List<scalar> 2(0.000183283 0.000170916);
    }
    sun
    {
        type            nutkWallFunction;
        Cmu             0.09;
        kappa           0.41;
        E               9.8;
        value           nonuniform List<scalar> 
14
(
0.000136381
0.000148796
0.000151497
0.000158617
0.00016525
0.000171499
0.000177687
0.000183405
0.000187267
0.000188644
0.000186976
0.000181913
0.000173342
0.000161775
)
;
    }
    heatsource1
    {
        type            nutkWallFunction;
        Cmu             0.09;
        kappa           0.41;
        E               9.8;
        value           nonuniform List<scalar> 3(7.74997e-05 9.26548e-05 0.000103636);
    }
    heatsource2
    {
        type            nutkWallFunction;
        Cmu             0.09;
        kappa           0.41;
        E               9.8;
        value           nonuniform List<scalar> 4(0.000152638 8.67531e-05 8.67531e-05 0.000155);
    }
    Table_master
    {
        type            nutkWallFunction;
        Cmu             0.09;
        kappa           0.41;
        E               9.8;
        value           nonuniform List<scalar> 9(0.000101788 8.9731e-05 7.99254e-05 7.19293e-05 6.5354e-05 5.98941e-05 5.53287e-05 5.15169e-05 4.8407e-05);
    }
    Table_slave
    {
        type            nutkWallFunction;
        Cmu             0.09;
        kappa           0.41;
        E               9.8;
        value           nonuniform List<scalar> 9(0.000114284 0.000103924 9.64287e-05 9.06459e-05 8.56745e-05 8.11311e-05 7.67439e-05 7.21312e-05 6.67732e-05);
    }
    inlet
    {
        type            calculated;
        value           uniform 0.000100623;
    }
    outlet
    {
        type            calculated;
        value           nonuniform List<scalar> 2(0.00195895 0.00207796);
    }
}


// ************************************************************************* //
